
                                 *****************
                                 * O   R   C   A *
                                 *****************

                                            #,                                       
                                            ###                                      
                                            ####                                     
                                            #####                                    
                                            ######                                   
                                           ########,                                 
                                     ,,################,,,,,                         
                               ,,#################################,,                 
                          ,,##########################################,,             
                       ,#########################################, ''#####,          
                    ,#############################################,,   '####,        
                  ,##################################################,,,,####,       
                ,###########''''           ''''###############################       
              ,#####''   ,,,,##########,,,,          '''####'''          '####       
            ,##' ,,,,###########################,,,                        '##       
           ' ,,###''''                  '''############,,,                           
         ,,##''                                '''############,,,,        ,,,,,,###''
      ,#''                                            '''#######################'''  
     '                                                          ''''####''''         
             ,#######,   #######,   ,#######,      ##                                
            ,#'     '#,  ##    ##  ,#'     '#,    #''#        ######   ,####,        
            ##       ##  ##   ,#'  ##            #'  '#       #        #'  '#        
            ##       ##  #######   ##           ,######,      #####,   #    #        
            '#,     ,#'  ##    ##  '#,     ,#' ,#      #,         ##   #,  ,#        
             '#######'   ##     ##  '#######'  #'      '#     #####' # '####'        



                  #######################################################
                  #                        -***-                        #
                  #          Department of theory and spectroscopy      #
                  #    Directorship and core code : Frank Neese         #
                  #        Max Planck Institute fuer Kohlenforschung    #
                  #                Kaiser Wilhelm Platz 1               #
                  #                 D-45470 Muelheim/Ruhr               #
                  #                      Germany                        #
                  #                                                     #
                  #                  All rights reserved                #
                  #                        -***-                        #
                  #######################################################


                         Program Version 5.0.3 -  RELEASE  -


 With contributions from (in alphabetic order):
   Daniel Aravena         : Magnetic Suceptibility
   Michael Atanasov       : Ab Initio Ligand Field Theory (pilot matlab implementation)
   Alexander A. Auer      : GIAO ZORA, VPT2 properties, NMR spectrum
   Ute Becker             : Parallelization
   Giovanni Bistoni       : ED, misc. LED, open-shell LED, HFLD
   Martin Brehm           : Molecular dynamics
   Dmytro Bykov           : SCF Hessian
   Vijay G. Chilkuri      : MRCI spin determinant printing, contributions to CSF-ICE
   Dipayan Datta          : RHF DLPNO-CCSD density
   Achintya Kumar Dutta   : EOM-CC, STEOM-CC
   Dmitry Ganyushin       : Spin-Orbit,Spin-Spin,Magnetic field MRCI
   Miquel Garcia          : C-PCM and meta-GGA Hessian, CC/C-PCM, Gaussian charge scheme
   Yang Guo               : DLPNO-NEVPT2, F12-NEVPT2, CIM, IAO-localization
   Andreas Hansen         : Spin unrestricted coupled pair/coupled cluster methods
   Benjamin Helmich-Paris : MC-RPA, TRAH-SCF, COSX integrals
   Lee Huntington         : MR-EOM, pCC
   Robert Izsak           : Overlap fitted RIJCOSX, COSX-SCS-MP3, EOM
   Marcus Kettner         : VPT2
   Christian Kollmar      : KDIIS, OOCD, Brueckner-CCSD(T), CCSD density, CASPT2, CASPT2-K
   Simone Kossmann        : Meta GGA functionals, TD-DFT gradient, OOMP2, MP2 Hessian
   Martin Krupicka        : Initial AUTO-CI
   Lucas Lang             : DCDCAS
   Marvin Lechner         : AUTO-CI (C++ implementation), FIC-MRCC
   Dagmar Lenk            : GEPOL surface, SMD
   Dimitrios Liakos       : Extrapolation schemes; Compound Job, initial MDCI parallelization
   Dimitrios Manganas     : Further ROCIS development; embedding schemes
   Dimitrios Pantazis     : SARC Basis sets
   Anastasios Papadopoulos: AUTO-CI, single reference methods and gradients
   Taras Petrenko         : DFT Hessian,TD-DFT gradient, ASA, ECA, R-Raman, ABS, FL, XAS/XES, NRVS
   Peter Pinski           : DLPNO-MP2, DLPNO-MP2 Gradient
   Christoph Reimann      : Effective Core Potentials
   Marius Retegan         : Local ZFS, SOC
   Christoph Riplinger    : Optimizer, TS searches, QM/MM, DLPNO-CCSD(T), (RO)-DLPNO pert. Triples
   Tobias Risthaus        : Range-separated hybrids, TD-DFT gradient, RPA, STAB
   Michael Roemelt        : Original ROCIS implementation
   Masaaki Saitow         : Open-shell DLPNO-CCSD energy and density
   Barbara Sandhoefer     : DKH picture change effects
   Avijit Sen             : IP-ROCIS
   Kantharuban Sivalingam : CASSCF convergence, NEVPT2, FIC-MRCI
   Bernardo de Souza      : ESD, SOC TD-DFT
   Georgi Stoychev        : AutoAux, RI-MP2 NMR, DLPNO-MP2 response
   Willem Van den Heuvel  : Paramagnetic NMR
   Boris Wezisla          : Elementary symmetry handling
   Frank Wennmohs         : Technical directorship


 We gratefully acknowledge several colleagues who have allowed us to
 interface, adapt or use parts of their codes:
   Stefan Grimme, W. Hujo, H. Kruse, P. Pracht,  : VdW corrections, initial TS optimization,
                  C. Bannwarth, S. Ehlert          DFT functionals, gCP, sTDA/sTD-DF
   Ed Valeev, F. Pavosevic, A. Kumar             : LibInt (2-el integral package), F12 methods
   Garnet Chan, S. Sharma, J. Yang, R. Olivares  : DMRG
   Ulf Ekstrom                                   : XCFun DFT Library
   Mihaly Kallay                                 : mrcc  (arbitrary order and MRCC methods)
   Jiri Pittner, Ondrej Demel                    : Mk-CCSD
   Frank Weinhold                                : gennbo (NPA and NBO analysis)
   Christopher J. Cramer and Donald G. Truhlar   : smd solvation model
   Lars Goerigk                                  : TD-DFT with DH, B97 family of functionals
   V. Asgeirsson, H. Jonsson                     : NEB implementation
   FAccTs GmbH                                   : IRC, NEB, NEB-TS, DLPNO-Multilevel, CI-OPT
                                                   MM, QMMM, 2- and 3-layer-ONIOM, Crystal-QMMM,
                                                   LR-CPCM, SF, NACMEs, symmetry and pop. for TD-DFT,
                                                   nearIR, NL-DFT gradient (VV10), updates on ESD,
                                                   ML-optimized integration grids
   S Lehtola, MJT Oliveira, MAL Marques          : LibXC Library
   Liviu Ungur et al                             : ANISO software


 Your calculation uses the libint2 library for the computation of 2-el integrals
 For citations please refer to: http://libint.valeyev.net

 Your ORCA version has been built with support for libXC version: 5.1.0
 For citations please refer to: https://tddft.org/programs/libxc/

 This ORCA versions uses:
   CBLAS   interface :  Fast vector & matrix operations
   LAPACKE interface :  Fast linear algebra routines
   SCALAPACK package :  Parallel linear algebra routines
   Shared memory     :  Shared parallel matrices
   BLAS/LAPACK       :  OpenBLAS 0.3.19 NO_AFFINITY VORTEX SINGLE_THREADED
        Core in use  :  VORTEX
   Copyright (c) 2011-2014, The OpenBLAS Project


================================================================================

----- Orbital basis set information -----
Your calculation utilizes the basis: def2-SVP
   F. Weigend and R. Ahlrichs, Phys. Chem. Chem. Phys. 7, 3297 (2005).

================================================================================
                                        WARNINGS
                       Please study these warnings very carefully!
================================================================================

WARNING: Old DensityContainer found on disk!
         Will remove this file - 
         If you want to keep old densities, please start your calculation with a different basename. 


WARNING: Geometry Optimization
  ===> : Switching off AutoStart
         For restart on a previous wavefunction, please use MOREAD

INFO   : the flag for use of the SHARK integral package has been found!

================================================================================
                                       INPUT FILE
================================================================================
NAME = py.inp
|  1> # avogadro generated ORCA input file 
|  2> # Basic Mode
|  3> # 
|  4> ! RHF SP def2-SVP OPT FREQ
|  5> 
|  6> * xyz 0 1
|  7>    C       -1.79103        1.02503       -1.18507
|  8>    C       -1.89231        1.81599       -2.32948
|  9>    C       -0.74431        2.16096       -3.04267
| 10>    H       -2.86564        2.16346       -2.66545
| 11>    C       -0.54175        0.57905       -0.75385
| 12>    H       -2.68545        0.75626       -0.62941
| 13>    N        0.50496        1.71498       -2.61145
| 14>    H       -0.82322        2.77721       -3.93429
| 15>    C        0.60624        0.92402       -1.46704
| 16>    H       -0.46284       -0.03719        0.13777
| 17>    H        1.57957        0.57655       -1.13107
| 18> *
| 19> 
| 20> 
| 21>                          ****END OF INPUT****
================================================================================

                       *****************************
                       * Geometry Optimization Run *
                       *****************************

Geometry optimization settings:
Update method            Update   .... BFGS
Choice of coordinates    CoordSys .... Z-matrix Internals
Initial Hessian          InHess   .... Almoef's Model

Convergence Tolerances:
Energy Change            TolE     ....  5.0000e-06 Eh
Max. Gradient            TolMAXG  ....  3.0000e-04 Eh/bohr
RMS Gradient             TolRMSG  ....  1.0000e-04 Eh/bohr
Max. Displacement        TolMAXD  ....  4.0000e-03 bohr
RMS Displacement         TolRMSD  ....  2.0000e-03 bohr
Strict Convergence                ....  False
------------------------------------------------------------------------------
                        ORCA OPTIMIZATION COORDINATE SETUP
------------------------------------------------------------------------------

The optimization will be done in new redundant internal coordinates
Making redundant internal coordinates   ...  (new redundants) done
Evaluating the initial hessian          ...  (Almloef) done
Evaluating the coordinates              ...  done
Calculating the B-matrix                .... done
Calculating the G-matrix                .... done
Diagonalizing the G-matrix              .... done
The first mode is                       ....   20
The number of degrees of freedom        ....   27

    -----------------------------------------------------------------
                    Redundant Internal Coordinates


    -----------------------------------------------------------------
         Definition                    Initial Value    Approx d2E/dq
    -----------------------------------------------------------------
      1. B(C   1,C   0)                  1.3948         0.613809   
      2. B(C   2,C   1)                  1.3948         0.613810   
      3. B(H   3,C   1)                  1.0867         0.364452   
      4. B(C   4,C   0)                  1.3948         0.613809   
      5. B(H   5,C   0)                  1.0867         0.364452   
      6. B(N   6,C   2)                  1.3948         0.549774   
      7. B(H   7,C   2)                  1.0867         0.364455   
      8. B(C   8,N   6)                  1.3948         0.549756   
      9. B(C   8,C   4)                  1.3948         0.613829   
     10. B(H   9,C   4)                  1.0867         0.364463   
     11. B(H  10,C   8)                  1.0867         0.364452   
     12. A(C   1,C   0,H   5)          120.0000         0.353027   
     13. A(C   1,C   0,C   4)          119.9999         0.432502   
     14. A(C   4,C   0,H   5)          120.0001         0.353027   
     15. A(C   0,C   1,C   2)          119.9998         0.432502   
     16. A(C   0,C   1,H   3)          120.0000         0.353027   
     17. A(C   2,C   1,H   3)          120.0002         0.353027   
     18. A(C   1,C   2,N   6)          120.0001         0.421285   
     19. A(N   6,C   2,H   7)          120.0002         0.344406   
     20. A(C   1,C   2,H   7)          119.9997         0.353028   
     21. A(C   8,C   4,H   9)          120.0000         0.353031   
     22. A(C   0,C   4,H   9)          120.0000         0.353029   
     23. A(C   0,C   4,C   8)          120.0000         0.432504   
     24. A(C   2,N   6,C   8)          120.0001         0.410432   
     25. A(C   4,C   8,H  10)          120.0000         0.353029   
     26. A(C   4,C   8,N   6)          120.0001         0.421285   
     27. A(N   6,C   8,H  10)          120.0000         0.344403   
     28. D(H   3,C   1,C   0,H   5)     -0.0006         0.026040   
     29. D(C   2,C   1,C   0,C   4)      0.0004         0.026040   
     30. D(H   3,C   1,C   0,C   4)   -180.0000         0.026040   
     31. D(C   2,C   1,C   0,H   5)    179.9998         0.026040   
     32. D(N   6,C   2,C   1,H   3)   -180.0000         0.026040   
     33. D(H   7,C   2,C   1,C   0)   -179.9997         0.026040   
     34. D(N   6,C   2,C   1,C   0)     -0.0003         0.026040   
     35. D(H   7,C   2,C   1,H   3)      0.0007         0.026040   
     36. D(H   9,C   4,C   0,H   5)      0.0004         0.026040   
     37. D(H   9,C   4,C   0,C   1)    179.9998         0.026040   
     38. D(C   8,C   4,C   0,H   5)   -179.9999         0.026040   
     39. D(C   8,C   4,C   0,C   1)     -0.0004         0.026040   
     40. D(C   8,N   6,C   2,H   7)    179.9997         0.021860   
     41. D(C   8,N   6,C   2,C   1)      0.0003         0.021860   
     42. D(N   6,C   8,C   4,C   0)      0.0004         0.026041   
     43. D(H  10,C   8,N   6,C   2)   -180.0000         0.021858   
     44. D(C   4,C   8,N   6,C   2)     -0.0004         0.021858   
     45. D(H  10,C   8,C   4,H   9)     -0.0002         0.026041   
     46. D(H  10,C   8,C   4,C   0)   -180.0000         0.026041   
     47. D(N   6,C   8,C   4,H   9)   -179.9998         0.026041   
    -----------------------------------------------------------------

Number of atoms                         .... 11
Number of degrees of freedom            .... 47

         *************************************************************
         *                GEOMETRY OPTIMIZATION CYCLE   1            *
         *************************************************************
---------------------------------
CARTESIAN COORDINATES (ANGSTROEM)
---------------------------------
  C     -1.791030    1.025030   -1.185070
  C     -1.892310    1.815990   -2.329480
  C     -0.744310    2.160960   -3.042670
  H     -2.865640    2.163460   -2.665450
  C     -0.541750    0.579050   -0.753850
  H     -2.685450    0.756260   -0.629410
  N      0.504960    1.714980   -2.611450
  H     -0.823220    2.777210   -3.934290
  C      0.606240    0.924020   -1.467040
  H     -0.462840   -0.037190    0.137770
  H      1.579570    0.576550   -1.131070

----------------------------
CARTESIAN COORDINATES (A.U.)
----------------------------
  NO LB      ZA    FRAG     MASS         X           Y           Z
   0 C     6.0000    0    12.011   -3.384556    1.937026   -2.239458
   1 C     6.0000    0    12.011   -3.575948    3.431724   -4.402079
   2 C     6.0000    0    12.011   -1.406542    4.083623   -5.749813
   3 H     1.0000    0     1.008   -5.415275    4.088347   -5.036971
   4 C     6.0000    0    12.011   -1.023759    1.094246   -1.424570
   5 H     1.0000    0     1.008   -5.074765    1.429124   -1.189413
   6 N     7.0000    0    14.007    0.954236    3.240843   -4.934925
   7 H     1.0000    0     1.008   -1.555660    5.248166   -7.434731
   8 C     6.0000    0    12.011    1.145628    1.746145   -2.772304
   9 H     1.0000    0     1.008   -0.874641   -0.070279    0.260348
  10 H     1.0000    0     1.008    2.984955    1.089522   -2.137413

--------------------------------
INTERNAL COORDINATES (ANGSTROEM)
--------------------------------
 C      0   0   0     0.000000000000     0.00000000     0.00000000
 C      1   0   0     1.394829598231     0.00000000     0.00000000
 C      2   1   0     1.394829121075   119.99984112     0.00000000
 H      2   1   3     1.086730201430   119.99997539   179.99964050
 C      1   2   3     1.394829511876   119.99990327     0.00000000
 H      1   2   3     1.086730180358   120.00002670   179.99980893
 N      3   2   1     1.394820555376   120.00007763     0.00000000
 H      3   2   1     1.086727691282   119.99973092   180.00029094
 C      5   1   2     1.394820890688   120.00002597     0.00000000
 H      5   1   2     1.086722020620   119.99999143   179.99979013
 H      9   5   1     1.086730201430   119.99995385   180.00003066

---------------------------
INTERNAL COORDINATES (A.U.)
---------------------------
 C      0   0   0     0.000000000000     0.00000000     0.00000000
 C      1   0   0     2.635845944143     0.00000000     0.00000000
 C      2   1   0     2.635845042451   119.99984112     0.00000000
 H      2   1   3     2.053622462164   119.99997539   179.99964050
 C      1   2   3     2.635845780957   119.99990327     0.00000000
 H      1   2   3     2.053622422343   120.00002670   179.99980893
 N      3   2   1     2.635828855625   120.00007763     0.00000000
 H      3   2   1     2.053617718672   119.99973092   180.00029094
 C      5   1   2     2.635829489273   120.00002597     0.00000000
 H      5   1   2     2.053607002673   119.99999143   179.99979013
 H      9   5   1     2.053622462164   119.99995385   180.00003066

---------------------
BASIS SET INFORMATION
---------------------
There are 3 groups of distinct atoms

 Group   1 Type C   : 7s4p1d contracted to 3s2p1d pattern {511/31/1}
 Group   2 Type H   : 4s1p contracted to 2s1p pattern {31/1}
 Group   3 Type N   : 7s4p1d contracted to 3s2p1d pattern {511/31/1}

Atom   0C    basis set group =>   1
Atom   1C    basis set group =>   1
Atom   2C    basis set group =>   1
Atom   3H    basis set group =>   2
Atom   4C    basis set group =>   1
Atom   5H    basis set group =>   2
Atom   6N    basis set group =>   3
Atom   7H    basis set group =>   2
Atom   8C    basis set group =>   1
Atom   9H    basis set group =>   2
Atom  10H    basis set group =>   2
------------------------------------------------------------------------------
                           ORCA GTO INTEGRAL CALCULATION
------------------------------------------------------------------------------
------------------------------------------------------------------------------
                   ___                                                        
                  /   \      - P O W E R E D   B Y -                         
                 /     \                                                     
                 |  |  |   _    _      __       _____    __    __             
                 |  |  |  | |  | |    /  \     |  _  \  |  |  /  |          
                  \  \/   | |  | |   /    \    | | | |  |  | /  /          
                 / \  \   | |__| |  /  /\  \   | |_| |  |  |/  /          
                |  |  |   |  __  | /  /__\  \  |    /   |      \           
                |  |  |   | |  | | |   __   |  |    \   |  |\   \          
                \     /   | |  | | |  |  |  |  | |\  \  |  | \   \       
                 \___/    |_|  |_| |__|  |__|  |_| \__\ |__|  \__/        
                                                                              
                      - O R C A' S   B I G   F R I E N D -                    
                                      &                                       
                       - I N T E G R A L  F E E D E R -                       
                                                                              
 v1 FN, 2020, v2 2021                                                         
------------------------------------------------------------------------------


Reading SHARK input file py.SHARKINP.tmp ... ok
----------------------
SHARK INTEGRAL PACKAGE
----------------------

Number of atoms                             ...     11
Number of basis functions                   ...    109
Number of shells                            ...     51
Maximum angular momentum                    ...      2
Integral batch strategy                     ... SHARK/LIBINT Hybrid
RI-J (if used) integral strategy            ... SPLIT-RIJ (Revised 2003 algorithm where possible)
Printlevel                                  ...      1
Contraction scheme used                     ... SEGMENTED contraction
Coulomb Range Separation                    ... NOT USED
Exchange Range Separation                   ... NOT USED
Finite Nucleus Model                        ... NOT USED
Auxiliary Coulomb fitting basis             ... NOT available
Auxiliary J/K fitting basis                 ... NOT available
Auxiliary Correlation fitting basis         ... NOT available
Auxiliary 'external' fitting basis          ... NOT available
Integral threshold                          ...     2.500000e-11
Primitive cut-off                           ...     2.500000e-12
Primitive pair pre-selection threshold      ...     2.500000e-12

Calculating pre-screening integrals         ... done (  0.0 sec) Dimension = 51
Organizing shell pair data                  ... done (  0.0 sec)
Shell pair information
Total number of shell pairs                 ...      1326
Shell pairs after pre-screening             ...      1308
Total number of primitive shell pairs       ...      4846
Primitive shell pairs kept                  ...      3744
          la=0 lb=0:    397 shell pairs
          la=1 lb=0:    469 shell pairs
          la=1 lb=1:    151 shell pairs
          la=2 lb=0:    168 shell pairs
          la=2 lb=1:    102 shell pairs
          la=2 lb=2:     21 shell pairs

Calculating one electron integrals          ... done (  0.0 sec)
Calculating Nuclear repulsion               ... done (  0.0 sec) ENN=    203.339646975864 Eh

SHARK setup successfully completed in   0.0 seconds

Maximum memory used throughout the entire GTOINT-calculation: 11.0 MB
-------------------------------------------------------------------------------
                                 ORCA SCF
-------------------------------------------------------------------------------

------------
SCF SETTINGS
------------
Hamiltonian:
 Ab initio Hamiltonian  Method          .... Hartree-Fock(GTOs)


General Settings:
 Integral files         IntName         .... py
 Hartree-Fock type      HFTyp           .... RHF
 Total Charge           Charge          ....    0
 Multiplicity           Mult            ....    1
 Number of Electrons    NEL             ....   42
 Basis Dimension        Dim             ....  109
 Nuclear Repulsion      ENuc            ....    203.3396469759 Eh

Convergence Acceleration:
 DIIS                   CNVDIIS         .... on
   Start iteration      DIISMaxIt       ....    12
   Startup error        DIISStart       ....  0.200000
   # of expansion vecs  DIISMaxEq       ....     5
   Bias factor          DIISBfac        ....   1.050
   Max. coefficient     DIISMaxC        ....  10.000
 Trust-Rad. Augm. Hess. CNVTRAH         .... auto
   Auto Start mean grad. ratio tolernc. ....  1.125000
   Auto Start start iteration           ....    20
   Auto Start num. interpolation iter.  ....    10
   Max. Number of Micro iterations      ....    16
   Max. Number of Macro iterations      .... Maxiter - #DIIS iter
   Number of Davidson start vectors     ....     2
   Converg. threshold I  (grad. norm)   ....   1.000e-05
   Converg. threshold II (energy diff.) ....   1.000e-08
   Grad. Scal. Fac. for Micro threshold ....   0.100
   Minimum threshold for Micro iter.    ....   0.010
   NR start threshold (gradient norm)   ....   0.001
   Initial trust radius                 ....   0.400
   Minimum AH scaling param. (alpha)    ....   1.000
   Maximum AH scaling param. (alpha)    .... 1000.000
   Orbital update algorithm             .... Taylor
   White noise on init. David. guess    .... on
   Maximum white noise                  ....   0.010
   Quad. conv. algorithm                .... NR
 SOSCF                  CNVSOSCF        .... on
   Start iteration      SOSCFMaxIt      ....   150
   Startup grad/error   SOSCFStart      ....  0.003300
 Level Shifting         CNVShift        .... on
   Level shift para.    LevelShift      ....    0.2500
   Turn off err/grad.   ShiftErr        ....    0.0010
 Zerner damping         CNVZerner       .... off
 Static damping         CNVDamp         .... on
   Fraction old density DampFac         ....    0.7000
   Max. Damping (<1)    DampMax         ....    0.9800
   Min. Damping (>=0)   DampMin         ....    0.0000
   Turn off err/grad.   DampErr         ....    0.1000
 Fernandez-Rico         CNVRico         .... off

SCF Procedure:
 Maximum # iterations   MaxIter         ....   125
 SCF integral mode      SCFMode         .... Direct
   Integral package                     .... SHARK and LIBINT hybrid scheme
 Reset frequency        DirectResetFreq ....    20
 Integral Threshold     Thresh          ....  2.500e-11 Eh
 Primitive CutOff       TCut            ....  2.500e-12 Eh

Convergence Tolerance:
 Convergence Check Mode ConvCheckMode   .... Total+1el-Energy
 Convergence forced     ConvForced      .... 0
 Energy Change          TolE            ....  1.000e-08 Eh
 1-El. energy change                    ....  1.000e-05 Eh
 Orbital Gradient       TolG            ....  1.000e-05
 Orbital Rotation angle TolX            ....  1.000e-05
 DIIS Error             TolErr          ....  5.000e-07


Diagonalization of the overlap matrix:
Smallest eigenvalue                        ... 7.668e-04
Time for diagonalization                   ...    0.003 sec
Threshold for overlap eigenvalues          ... 1.000e-08
Number of eigenvalues below threshold      ... 0
Time for construction of square roots      ...    0.000 sec
Total time needed                          ...    0.003 sec

Time for model grid setup =    0.044 sec

------------------------------
INITIAL GUESS: MODEL POTENTIAL
------------------------------
Loading Hartree-Fock densities                     ... done
Calculating cut-offs                               ... done
Initializing the effective Hamiltonian             ... done
Setting up the integral package (SHARK)            ... done
Starting the Coulomb interaction                   ... done (   0.0 sec)
Reading the grid                                   ... done
Mapping shells                                     ... done
Starting the XC term evaluation                    ... done (   0.0 sec)
Transforming the Hamiltonian                       ... done (   0.0 sec)
Diagonalizing the Hamiltonian                      ... done (   0.0 sec)
Back transforming the eigenvectors                 ... done (   0.0 sec)
Now organizing SCF variables                       ... done
                      ------------------
                      INITIAL GUESS DONE (   0.1 sec)
                      ------------------
--------------
SCF ITERATIONS
--------------
ITER       Energy         Delta-E        Max-DP      RMS-DP      [F,P]     Damp
               ***  Starting incremental Fock matrix formation  ***
  0   -246.3165290832   0.000000000000 0.04696587  0.00251680  0.1605563 0.7000
  1   -246.3766820964  -0.060153013229 0.03112433  0.00200768  0.1045812 0.7000
                               ***Turning on DIIS***
  2   -246.4149386448  -0.038256548400 0.06452662  0.00468533  0.0633604 0.0000
  3   -246.2054852597   0.209453385100 0.02909130  0.00099220  0.0291416 0.0000
  4   -246.5060474384  -0.300562178651 0.00599633  0.00032560  0.0047794 0.0000
                      *** Initiating the SOSCF procedure ***
                           *** Shutting down DIIS ***
                      *** Re-Reading the Fockian *** 
                      *** Removing any level shift *** 
ITER      Energy       Delta-E        Grad      Rot      Max-DP    RMS-DP
  5   -246.49702100   0.0090264347  0.001278  0.001278  0.003202  0.000156
               *** Restarting incremental Fock matrix formation ***
  6   -246.49650714   0.0005138685  0.000715  0.001495  0.001526  0.000064
  7   -246.49651488  -0.0000077464  0.000417  0.000733  0.001344  0.000056
  8   -246.49651810  -0.0000032186  0.000113  0.000347  0.000218  0.000012
  9   -246.49651846  -0.0000003581  0.000069  0.000305  0.000215  0.000012
 10   -246.49651859  -0.0000001305  0.000022  0.000036  0.000032  0.000002
 11   -246.49651860  -0.0000000112  0.000010  0.000024  0.000028  0.000001
 12   -246.49651860  -0.0000000020  0.000004  0.000013  0.000007  0.000000
                  ***Gradient check signals convergence***
              ***Rediagonalizing the Fockian in SOSCF/NRSCF***

               *****************************************************
               *                     SUCCESS                       *
               *           SCF CONVERGED AFTER  13 CYCLES          *
               *****************************************************


----------------
TOTAL SCF ENERGY
----------------

Total Energy       :         -246.49651860 Eh           -6707.51127 eV

Components:
Nuclear Repulsion  :          203.33964698 Eh            5533.15309 eV
Electronic Energy  :         -449.83616558 Eh          -12240.66437 eV
One Electron Energy:         -735.07057318 Eh          -20002.28719 eV
Two Electron Energy:          285.23440760 Eh            7761.62282 eV

Virial components:
Potential Energy   :         -491.39692551 Eh          -13371.59014 eV
Kinetic Energy     :          244.90040690 Eh            6664.07887 eV
Virial Ratio       :            2.00651739


---------------
SCF CONVERGENCE
---------------

  Last Energy change         ...    9.0211e-11  Tolerance :   1.0000e-08
  Last MAX-Density change    ...    2.4484e-06  Tolerance :   1.0000e-07
  Last RMS-Density change    ...    9.8972e-08  Tolerance :   5.0000e-09
  Last Orbital Gradient      ...    5.2840e-07  Tolerance :   1.0000e-05
  Last Orbital Rotation      ...    5.7638e-07  Tolerance :   1.0000e-05

             **** THE GBW FILE WAS UPDATED (py.gbw) ****
             **** DENSITY py.scfp WAS UPDATED ****
             **** ENERGY FILE WAS UPDATED (py.en.tmp) ****
             **** THE GBW FILE WAS UPDATED (py.gbw) ****
             **** DENSITY py.scfp WAS UPDATED ****
----------------
ORBITAL ENERGIES
----------------

  NO   OCC          E(Eh)            E(eV) 
   0   2.0000     -15.573087      -423.7652 
   1   2.0000     -11.287095      -307.1375 
   2   2.0000     -11.287085      -307.1372 
   3   2.0000     -11.263179      -306.4867 
   4   2.0000     -11.248638      -306.0910 
   5   2.0000     -11.248595      -306.0898 
   6   2.0000      -1.215886       -33.0859 
   7   2.0000      -1.068345       -29.0711 
   8   2.0000      -1.024170       -27.8691 
   9   2.0000      -0.853579       -23.2271 
  10   2.0000      -0.838460       -22.8157 
  11   2.0000      -0.716593       -19.4995 
  12   2.0000      -0.655024       -17.8241 
  13   2.0000      -0.651781       -17.7359 
  14   2.0000      -0.607901       -16.5418 
  15   2.0000      -0.570198       -15.5159 
  16   2.0000      -0.528174       -14.3723 
  17   2.0000      -0.525268       -14.2933 
  18   2.0000      -0.412022       -11.2117 
  19   2.0000      -0.373516       -10.1639 
  20   2.0000      -0.352265        -9.5856 
  21   0.0000       0.104555         2.8451 
  22   0.0000       0.123626         3.3640 
  23   0.0000       0.182087         4.9548 
  24   0.0000       0.213596         5.8122 
  25   0.0000       0.228192         6.2094 
  26   0.0000       0.253308         6.8929 
  27   0.0000       0.264119         7.1871 
  28   0.0000       0.326148         8.8749 
  29   0.0000       0.359668         9.7871 
  30   0.0000       0.436751        11.8846 
  31   0.0000       0.464239        12.6326 
  32   0.0000       0.471450        12.8288 
  33   0.0000       0.502092        13.6626 
  34   0.0000       0.560248        15.2451 
  35   0.0000       0.564869        15.3709 
  36   0.0000       0.578932        15.7535 
  37   0.0000       0.649302        17.6684 
  38   0.0000       0.660692        17.9783 
  39   0.0000       0.667624        18.1670 
  40   0.0000       0.674850        18.3636 
  41   0.0000       0.742087        20.1932 
  42   0.0000       0.755998        20.5718 
  43   0.0000       0.793332        21.5877 
  44   0.0000       0.817544        22.2465 
  45   0.0000       0.825310        22.4578 
  46   0.0000       0.856014        23.2933 
  47   0.0000       0.862556        23.4713 
  48   0.0000       0.871419        23.7125 
  49   0.0000       0.884446        24.0670 
  50   0.0000       0.923310        25.1245 
  51   0.0000       0.950834        25.8735 
  52   0.0000       0.967859        26.3368 
  53   0.0000       0.983673        26.7671 
  54   0.0000       1.028719        27.9929 
  55   0.0000       1.075513        29.2662 
  56   0.0000       1.119900        30.4740 
  57   0.0000       1.159767        31.5589 
  58   0.0000       1.211835        32.9757 
  59   0.0000       1.238393        33.6984 
  60   0.0000       1.386563        37.7303 
  61   0.0000       1.409651        38.3585 
  62   0.0000       1.441578        39.2273 
  63   0.0000       1.484355        40.3913 
  64   0.0000       1.514044        41.1992 
  65   0.0000       1.522083        41.4180 
  66   0.0000       1.554637        42.3038 
  67   0.0000       1.576336        42.8943 
  68   0.0000       1.597914        43.4815 
  69   0.0000       1.779171        48.4137 
  70   0.0000       1.905941        51.8633 
  71   0.0000       1.945903        52.9507 
  72   0.0000       1.979128        53.8548 
  73   0.0000       1.994053        54.2610 
  74   0.0000       2.001283        54.4577 
  75   0.0000       2.040863        55.5347 
  76   0.0000       2.046186        55.6796 
  77   0.0000       2.057250        55.9806 
  78   0.0000       2.086789        56.7844 
  79   0.0000       2.119188        57.6660 
  80   0.0000       2.174942        59.1832 
  81   0.0000       2.212828        60.2141 
  82   0.0000       2.264564        61.6219 
  83   0.0000       2.269468        61.7554 
  84   0.0000       2.273013        61.8518 
  85   0.0000       2.343396        63.7670 
  86   0.0000       2.403536        65.4035 
  87   0.0000       2.420649        65.8692 
  88   0.0000       2.512136        68.3587 
  89   0.0000       2.543722        69.2182 
  90   0.0000       2.611739        71.0690 
  91   0.0000       2.650234        72.1165 
  92   0.0000       2.740690        74.5780 
  93   0.0000       2.751075        74.8605 
  94   0.0000       2.757699        75.0408 
  95   0.0000       2.787281        75.8458 
  96   0.0000       2.913628        79.2838 
  97   0.0000       2.918658        79.4207 
  98   0.0000       3.055656        83.1486 
  99   0.0000       3.066865        83.4536 
 100   0.0000       3.067750        83.4777 
 101   0.0000       3.103313        84.4454 
 102   0.0000       3.216221        87.5178 
 103   0.0000       3.281775        89.3016 
 104   0.0000       3.356777        91.3425 
 105   0.0000       3.437184        93.5305 
 106   0.0000       3.467619        94.3587 
 107   0.0000       3.644473        99.1711 
 108   0.0000       3.990785       108.5948 

                    ********************************
                    * MULLIKEN POPULATION ANALYSIS *
                    ********************************

-----------------------
MULLIKEN ATOMIC CHARGES
-----------------------
   0 C :    0.032798
   1 C :   -0.131093
   2 C :    0.180351
   3 H :    0.049805
   4 C :   -0.131087
   5 H :    0.055133
   6 N :   -0.414450
   7 H :    0.064195
   8 C :    0.180349
   9 H :    0.049801
  10 H :    0.064197
Sum of atomic charges:   -0.0000000

--------------------------------
MULLIKEN REDUCED ORBITAL CHARGES
--------------------------------
  0 C s       :     3.099473  s :     3.099473
      pz      :     0.943433  p :     2.823108
      px      :     0.947132
      py      :     0.932543
      dz2     :     0.009078  d :     0.044620
      dxz     :     0.011970
      dyz     :     0.006675
      dx2y2   :     0.008859
      dxy     :     0.008038
  1 C s       :     3.150319  s :     3.150319
      pz      :     0.976622  p :     2.938977
      px      :     0.961777
      py      :     1.000578
      dz2     :     0.008729  d :     0.041798
      dxz     :     0.011368
      dyz     :     0.006743
      dx2y2   :     0.007685
      dxy     :     0.007272
  2 C s       :     3.090660  s :     3.090660
      pz      :     0.923314  p :     2.669515
      px      :     0.830107
      py      :     0.916094
      dz2     :     0.009656  d :     0.059474
      dxz     :     0.016868
      dyz     :     0.006686
      dx2y2   :     0.013258
      dxy     :     0.013006
  3 H s       :     0.924743  s :     0.924743
      pz      :     0.004426  p :     0.025452
      px      :     0.015854
      py      :     0.005173
  4 C s       :     3.150315  s :     3.150315
      pz      :     0.982080  p :     2.938973
      px      :     0.954243
      py      :     1.002651
      dz2     :     0.007095  d :     0.041798
      dxz     :     0.011763
      dyz     :     0.005138
      dx2y2   :     0.009048
      dxy     :     0.008754
  5 H s       :     0.919363  s :     0.919363
      pz      :     0.007260  p :     0.025504
      px      :     0.013941
      py      :     0.004304
  6 N s       :     3.600423  s :     3.600423
      pz      :     1.217035  p :     3.785650
      px      :     1.437768
      py      :     1.130847
      dz2     :     0.007140  d :     0.028377
      dxz     :     0.003971
      dyz     :     0.005763
      dx2y2   :     0.006808
      dxy     :     0.004695
  7 H s       :     0.910776  s :     0.910776
      pz      :     0.014426  p :     0.025029
      px      :     0.001973
      py      :     0.008630
  8 C s       :     3.090660  s :     3.090660
      pz      :     0.854037  p :     2.669517
      px      :     0.925693
      py      :     0.889787
      dz2     :     0.012669  d :     0.059474
      dxz     :     0.016783
      dyz     :     0.010504
      dx2y2   :     0.009108
      dxy     :     0.010409
  9 H s       :     0.924747  s :     0.924747
      pz      :     0.014198  p :     0.025452
      px      :     0.002371
      py      :     0.008883
 10 H s       :     0.910774  s :     0.910774
      pz      :     0.003867  p :     0.025029
      px      :     0.016541
      py      :     0.004621


                     *******************************
                     * LOEWDIN POPULATION ANALYSIS *
                     *******************************

----------------------
LOEWDIN ATOMIC CHARGES
----------------------
   0 C :    0.014246
   1 C :   -0.061065
   2 C :    0.065621
   3 H :    0.028988
   4 C :   -0.061064
   5 H :    0.032335
   6 N :   -0.167965
   7 H :    0.027147
   8 C :    0.065622
   9 H :    0.028987
  10 H :    0.027148

-------------------------------
LOEWDIN REDUCED ORBITAL CHARGES
-------------------------------
  0 C s       :     2.856644  s :     2.856644
      pz      :     1.015191  p :     3.029937
      px      :     1.053496
      py      :     0.961249
      dz2     :     0.019464  d :     0.099174
      dxz     :     0.028304
      dyz     :     0.014307
      dx2y2   :     0.019758
      dxy     :     0.017340
  1 C s       :     2.859960  s :     2.859960
      pz      :     1.040781  p :     3.105229
      px      :     1.051210
      py      :     1.013239
      dz2     :     0.019829  d :     0.095876
      dxz     :     0.027016
      dyz     :     0.014931
      dx2y2   :     0.018089
      dxy     :     0.016011
  2 C s       :     2.866217  s :     2.866217
      pz      :     0.998178  p :     2.941710
      px      :     0.998483
      py      :     0.945049
      dz2     :     0.020611  d :     0.126452
      dxz     :     0.036115
      dyz     :     0.013398
      dx2y2   :     0.030059
      dxy     :     0.026269
  3 H s       :     0.901664  s :     0.901664
      pz      :     0.014810  p :     0.069348
      px      :     0.038006
      py      :     0.016531
  4 C s       :     2.859956  s :     2.859956
      pz      :     1.028991  p :     3.105231
      px      :     1.067479
      py      :     1.008761
      dz2     :     0.015974  d :     0.095878
      dxz     :     0.027572
      dyz     :     0.011691
      dx2y2   :     0.021326
      dxy     :     0.019314
  5 H s       :     0.899927  s :     0.899927
      pz      :     0.020055  p :     0.067739
      px      :     0.033868
      py      :     0.013815
  6 N s       :     3.265535  s :     3.265535
      pz      :     1.248977  p :     3.852148
      px      :     1.456664
      py      :     1.146507
      dz2     :     0.012458  d :     0.050283
      dxz     :     0.007997
      dyz     :     0.010294
      dx2y2   :     0.011681
      dxy     :     0.007852
  7 H s       :     0.905120  s :     0.905120
      pz      :     0.036142  p :     0.067733
      px      :     0.008039
      py      :     0.023552
  8 C s       :     2.866217  s :     2.866217
      pz      :     0.957978  p :     2.941711
      px      :     1.053949
      py      :     0.929784
      dz2     :     0.026334  d :     0.126451
      dxz     :     0.037131
      dyz     :     0.021982
      dx2y2   :     0.019391
      dxy     :     0.021613
  9 H s       :     0.901664  s :     0.901664
      pz      :     0.034636  p :     0.069349
      px      :     0.010654
      py      :     0.024060
 10 H s       :     0.905119  s :     0.905119
      pz      :     0.012576  p :     0.067732
      px      :     0.040553
      py      :     0.014603


                      *****************************
                      * MAYER POPULATION ANALYSIS *
                      *****************************

  NA   - Mulliken gross atomic population
  ZA   - Total nuclear charge
  QA   - Mulliken gross atomic charge
  VA   - Mayer's total valence
  BVA  - Mayer's bonded valence
  FA   - Mayer's free valence

  ATOM       NA         ZA         QA         VA         BVA        FA
  0 C      5.9672     6.0000     0.0328     3.8740     3.8740     0.0000
  1 C      6.1311     6.0000    -0.1311     3.9025     3.9025     0.0000
  2 C      5.8196     6.0000     0.1804     3.8987     3.8987    -0.0000
  3 H      0.9502     1.0000     0.0498     0.9863     0.9863    -0.0000
  4 C      6.1311     6.0000    -0.1311     3.9025     3.9025    -0.0000
  5 H      0.9449     1.0000     0.0551     0.9855     0.9855     0.0000
  6 N      7.4145     7.0000    -0.4145     2.9511     2.9511     0.0000
  7 H      0.9358     1.0000     0.0642     0.9901     0.9901     0.0000
  8 C      5.8197     6.0000     0.1803     3.8987     3.8987    -0.0000
  9 H      0.9502     1.0000     0.0498     0.9864     0.9864    -0.0000
 10 H      0.9358     1.0000     0.0642     0.9901     0.9901    -0.0000

  Mayer bond orders larger than 0.100000
B(  0-C ,  1-C ) :   1.4281 B(  0-C ,  4-C ) :   1.4281 B(  0-C ,  5-H ) :   0.9934 
B(  1-C ,  2-C ) :   1.4164 B(  1-C ,  3-H ) :   0.9869 B(  2-C ,  6-N ) :   1.4269 
B(  2-C ,  7-H ) :   0.9970 B(  4-C ,  8-C ) :   1.4164 B(  4-C ,  9-H ) :   0.9869 
B(  6-N ,  8-C ) :   1.4268 B(  8-C , 10-H ) :   0.9970 

-------
TIMINGS
-------

Total SCF time: 0 days 0 hours 0 min 4 sec 

Total time                  ....       4.765 sec
Sum of individual times     ....       4.673 sec  ( 98.1%)

Fock matrix formation       ....       4.559 sec  ( 95.7%)
Diagonalization             ....       0.006 sec  (  0.1%)
Density matrix formation    ....       0.001 sec  (  0.0%)
Population analysis         ....       0.002 sec  (  0.0%)
Initial guess               ....       0.054 sec  (  1.1%)
Orbital Transformation      ....       0.000 sec  (  0.0%)
Orbital Orthonormalization  ....       0.000 sec  (  0.0%)
DIIS solution               ....       0.002 sec  (  0.0%)
SOSCF solution              ....       0.006 sec  (  0.1%)

Maximum memory used throughout the entire SCF-calculation: 234.1 MB

-------------------------   --------------------
FINAL SINGLE POINT ENERGY      -246.496518601846
-------------------------   --------------------

------------------------------------------------------------------------------
                         ORCA SCF GRADIENT CALCULATION
------------------------------------------------------------------------------

Gradient of the Hartree-Fock SCF energy:
Hartree-Fock type                ... RHF
Number of operators              ...    1
Number of atoms                  ...   11
Basis set dimensions             ...  109
Integral neglect threshold       ... 2.5e-11
Integral primitive cutoff        ... 2.5e-12
SHARK Integral package           ... ON

Nuc. rep. gradient       (SHARK) ... done (  0.0 sec)
HCore & Overlap gradient (SHARK) ... done (  0.0 sec)
Two-Electron gradient    (SHARK) ... done (  2.0 sec)

------------------
CARTESIAN GRADIENT
------------------

   1   C   :   -0.006365314   -0.001915721    0.003956586
   2   C   :   -0.000297579   -0.000403964    0.000649246
   3   C   :   -0.051102578    0.038186263   -0.046955122
   4   H   :   -0.003005043    0.000838940   -0.000693914
   5   C   :   -0.000815484    0.000069810    0.000045365
   6   H   :   -0.002789330   -0.000837922    0.001733023
   7   N   :    0.036571227    0.010991866   -0.022721450
   8   H   :   -0.009139362    0.002904991   -0.002628212
   9   C   :    0.036929977   -0.042447482    0.055759165
  10   H   :   -0.000140668   -0.001780942    0.002642989
  11   H   :    0.000154155   -0.005605839    0.008212324

Difference to translation invariance:
           :   -0.0000000000    0.0000000000   -0.0000000000

Difference to rotation invariance:
           :   -0.0000000115    0.0000000021    0.0000000007

Norm of the cartesian gradient     ...    0.1217148945
RMS gradient                       ...    0.0211878435
MAX gradient                       ...    0.0557591654

-------
TIMINGS
-------

Total SCF gradient time            ...        2.033 sec

One electron gradient       ....       0.023 sec  (  1.1%)
Two electron gradient       ....       1.996 sec  ( 98.2%)

Maximum memory used throughout the entire SCFGRAD-calculation: 21.8 MB
------------------------------------------------------------------------------
                         ORCA GEOMETRY RELAXATION STEP
------------------------------------------------------------------------------

Reading the OPT-File                    .... done
Getting information on internals        .... done
Copying old internal coords+grads       .... done
Making the new internal coordinates     .... (new redundants).... done
Validating the new internal coordinates .... (new redundants).... done
Calculating the B-matrix                .... done
Calculating the G,G- and P matrices     .... done
Transforming gradient to internals      .... done
Projecting the internal gradient        .... done
Number of atoms                         ....  11
Number of internal coordinates          ....  47
Current Energy                          ....  -246.496518602 Eh
Current gradient norm                   ....     0.121714894 Eh/bohr
Maximum allowed component of the step   ....  0.300
Current trust radius                    ....  0.300
Evaluating the initial hessian          ....  (Almloef) done
Projecting the Hessian                  .... done
Forming the augmented Hessian           .... done
Diagonalizing the augmented Hessian     .... done
Last element of RFO vector              ....  0.976649373
Lowest eigenvalues of augmented Hessian:
 -0.025982409  0.022725534  0.024467099  0.024793744  0.025567413
Length of the computed step             ....  0.219976057
The final length of the internal step   ....  0.219976057
Converting the step to cartesian space:
 Initial RMS(Int)=    0.0320868057
Transforming coordinates:
 Iter   0:  RMS(Cart)=    0.0582241052 RMS(Int)=    1.2965197875
 Iter   1:  RMS(Cart)=    0.0007844087 RMS(Int)=    0.0005415890
 Iter   2:  RMS(Cart)=    0.0000147092 RMS(Int)=    0.0000110508
 Iter   3:  RMS(Cart)=    0.0000004337 RMS(Int)=    0.0000003817
 Iter   4:  RMS(Cart)=    0.0000000191 RMS(Int)=    0.0000000169
done
Storing new coordinates                 .... done

                                .--------------------.
          ----------------------|Geometry convergence|-------------------------
          Item                value                   Tolerance       Converged
          ---------------------------------------------------------------------
          RMS gradient        0.0173672218            0.0001000000      NO
          MAX gradient        0.0748429442            0.0003000000      NO
          RMS step            0.0320868057            0.0020000000      NO
          MAX step            0.1320255324            0.0040000000      NO
          ........................................................
          Max(Bonds)      0.0699      Max(Angles)    2.72
          Max(Dihed)        0.00      Max(Improp)    0.00
          ---------------------------------------------------------------------

The optimization has not yet converged - more geometry cycles are needed


    ---------------------------------------------------------------------------
                         Redundant Internal Coordinates
                            (Angstroem and degrees)

        Definition                    Value    dE/dq     Step     New-Value
    ----------------------------------------------------------------------------
     1. B(C   1,C   0)                1.3948  0.016257 -0.0125    1.3824   
     2. B(C   2,C   1)                1.3948  0.008151 -0.0067    1.3881   
     3. B(H   3,C   1)                1.0867  0.003174 -0.0043    1.0824   
     4. B(C   4,C   0)                1.3948  0.016254 -0.0125    1.3824   
     5. B(H   5,C   0)                1.0867  0.003389 -0.0046    1.0821   
     6. B(N   6,C   2)                1.3948  0.074840 -0.0699    1.3250   
     7. B(H   7,C   2)                1.0867  0.004467 -0.0061    1.0807   
     8. B(C   8,N   6)                1.3948  0.074843 -0.0699    1.3250   
     9. B(C   8,C   4)                1.3948  0.008147 -0.0067    1.3881   
    10. B(H   9,C   4)                1.0867  0.003168 -0.0043    1.0824   
    11. B(H  10,C   8)                1.0867  0.004469 -0.0061    1.0807   
    12. A(C   1,C   0,H   5)          120.00 -0.007528    0.84    120.84   
    13. A(C   1,C   0,C   4)          120.00  0.015056   -1.68    118.32   
    14. A(C   4,C   0,H   5)          120.00 -0.007528    0.84    120.84   
    15. A(C   0,C   1,C   2)          120.00  0.009594   -1.11    118.89   
    16. A(C   0,C   1,H   3)          120.00 -0.005181    0.61    120.61   
    17. A(C   2,C   1,H   3)          120.00 -0.004413    0.50    120.50   
    18. A(C   1,C   2,N   6)          120.00 -0.020399    2.61    122.61   
    19. A(N   6,C   2,H   7)          120.00  0.019321   -2.72    117.28   
    20. A(C   1,C   2,H   7)          120.00  0.001078    0.10    120.10   
    21. A(C   8,C   4,H   9)          120.00 -0.004414    0.50    120.50   
    22. A(C   0,C   4,H   9)          120.00 -0.005181    0.61    120.61   
    23. A(C   0,C   4,C   8)          120.00  0.009595   -1.11    118.89   
    24. A(C   2,N   6,C   8)          120.00  0.006552   -1.32    118.68   
    25. A(C   4,C   8,H  10)          120.00  0.001077    0.10    120.10   
    26. A(C   4,C   8,N   6)          120.00 -0.020398    2.61    122.61   
    27. A(N   6,C   8,H  10)          120.00  0.019321   -2.72    117.28   
    28. D(H   3,C   1,C   0,H   5)     -0.00 -0.000000    0.00     -0.00   
    29. D(C   2,C   1,C   0,C   4)      0.00  0.000000   -0.00      0.00   
    30. D(H   3,C   1,C   0,C   4)   -180.00  0.000000   -0.00   -180.00   
    31. D(C   2,C   1,C   0,H   5)    180.00 -0.000000    0.00    180.00   
    32. D(N   6,C   2,C   1,H   3)   -180.00 -0.000000    0.00   -180.00   
    33. D(H   7,C   2,C   1,C   0)   -180.00  0.000000   -0.00   -180.00   
    34. D(N   6,C   2,C   1,C   0)     -0.00 -0.000000    0.00     -0.00   
    35. D(H   7,C   2,C   1,H   3)      0.00  0.000000   -0.00      0.00   
    36. D(H   9,C   4,C   0,H   5)      0.00  0.000000   -0.00      0.00   
    37. D(H   9,C   4,C   0,C   1)    180.00 -0.000000    0.00    180.00   
    38. D(C   8,C   4,C   0,H   5)   -180.00  0.000000   -0.00   -180.00   
    39. D(C   8,C   4,C   0,C   1)     -0.00 -0.000000    0.00     -0.00   
    40. D(C   8,N   6,C   2,H   7)    180.00 -0.000000    0.00    180.00   
    41. D(C   8,N   6,C   2,C   1)      0.00  0.000000   -0.00      0.00   
    42. D(N   6,C   8,C   4,C   0)      0.00  0.000000   -0.00      0.00   
    43. D(H  10,C   8,N   6,C   2)   -180.00  0.000000   -0.00   -180.00   
    44. D(C   4,C   8,N   6,C   2)     -0.00 -0.000000    0.00     -0.00   
    45. D(H  10,C   8,C   4,H   9)     -0.00 -0.000000    0.00     -0.00   
    46. D(H  10,C   8,C   4,C   0)   -180.00 -0.000000    0.00   -180.00   
    47. D(N   6,C   8,C   4,H   9)   -180.00  0.000000   -0.00   -180.00   
    ----------------------------------------------------------------------------

         *************************************************************
         *                GEOMETRY OPTIMIZATION CYCLE   2            *
         *************************************************************
---------------------------------
CARTESIAN COORDINATES (ANGSTROEM)
---------------------------------
  C     -1.802892    1.021468   -1.177701
  C     -1.883184    1.804427   -2.314122
  C     -0.714995    2.123355   -2.992655
  H     -2.840465    2.163307   -2.669745
  C     -0.556146    0.589030   -0.765934
  H     -2.693532    0.753832   -0.624391
  N      0.478262    1.706956   -2.594863
  H     -0.755003    2.734155   -3.883259
  C      0.559239    0.956314   -1.506065
  H     -0.450357   -0.025726    0.118676
  H      1.543294    0.629203   -1.201950

----------------------------
CARTESIAN COORDINATES (A.U.)
----------------------------
  NO LB      ZA    FRAG     MASS         X           Y           Z
   0 C     6.0000    0    12.011   -3.406973    1.930295   -2.225532
   1 C     6.0000    0    12.011   -3.558702    3.409872   -4.373057
   2 C     6.0000    0    12.011   -1.351145    4.012559   -5.655298
   3 H     1.0000    0     1.008   -5.367702    4.088057   -5.045087
   4 C     6.0000    0    12.011   -1.050964    1.113105   -1.447406
   5 H     1.0000    0     1.008   -5.090039    1.424536   -1.179929
   6 N     7.0000    0    14.007    0.903785    3.225680   -4.903580
   7 H     1.0000    0     1.008   -1.426748    5.166805   -7.338297
   8 C     6.0000    0    12.011    1.056808    1.807172   -2.846050
   9 H     1.0000    0     1.008   -0.851052   -0.048615    0.224264
  10 H     1.0000    0     1.008    2.916403    1.189021   -2.271356

--------------------------------
INTERNAL COORDINATES (ANGSTROEM)
--------------------------------
 C      0   0   0     0.000000000000     0.00000000     0.00000000
 C      1   0   0     1.382361787961     0.00000000     0.00000000
 C      2   1   0     1.388087519852   118.88874379     0.00000000
 H      2   1   3     1.082427978861   120.61357094   179.99980856
 C      1   2   3     1.382364319683   118.32303871     0.00000000
 H      1   2   3     1.082136774215   120.83846498   179.99986879
 N      3   2   1     1.324948996435   122.61315704     0.00000000
 H      3   2   1     1.080672941625   120.10304266   180.00007463
 C      7   3   2     1.324953230499   118.67311516     0.00000000
 H      5   1   2     1.082428130157   120.61357075   179.99996793
 H      9   7   3     1.080672613302   117.28361315   179.99996551

---------------------------
INTERNAL COORDINATES (A.U.)
---------------------------
 C      0   0   0     0.000000000000     0.00000000     0.00000000
 C      1   0   0     2.612285197244     0.00000000     0.00000000
 C      2   1   0     2.623105262435   118.88874379     0.00000000
 H      2   1   3     2.045492439741   120.61357094   179.99980856
 C      1   2   3     2.612289981505   118.32303871     0.00000000
 H      1   2   3     2.044942142712   120.83846498   179.99986879
 N      3   2   1     2.503790744676   122.61315704     0.00000000
 H      3   2   1     2.042175900011   120.10304266   180.00007463
 C      7   3   2     2.503798745897   118.67311516     0.00000000
 H      5   1   2     2.045492725649   120.61357075   179.99996793
 H      9   7   3     2.042175279570   117.28361315   179.99996551

------------------------------------------------------------------------------
                   ___                                                        
                  /   \      - P O W E R E D   B Y -                         
                 /     \                                                     
                 |  |  |   _    _      __       _____    __    __             
                 |  |  |  | |  | |    /  \     |  _  \  |  |  /  |          
                  \  \/   | |  | |   /    \    | | | |  |  | /  /          
                 / \  \   | |__| |  /  /\  \   | |_| |  |  |/  /          
                |  |  |   |  __  | /  /__\  \  |    /   |      \           
                |  |  |   | |  | | |   __   |  |    \   |  |\   \          
                \     /   | |  | | |  |  |  |  | |\  \  |  | \   \       
                 \___/    |_|  |_| |__|  |__|  |_| \__\ |__|  \__/        
                                                                              
                      - O R C A' S   B I G   F R I E N D -                    
                                      &                                       
                       - I N T E G R A L  F E E D E R -                       
                                                                              
 v1 FN, 2020, v2 2021                                                         
------------------------------------------------------------------------------


Reading SHARK input file py.SHARKINP.tmp ... ok
----------------------
SHARK INTEGRAL PACKAGE
----------------------

Number of atoms                             ...     11
Number of basis functions                   ...    109
Number of shells                            ...     51
Maximum angular momentum                    ...      2
Integral batch strategy                     ... SHARK/LIBINT Hybrid
RI-J (if used) integral strategy            ... SPLIT-RIJ (Revised 2003 algorithm where possible)
Printlevel                                  ...      1
Contraction scheme used                     ... SEGMENTED contraction
Coulomb Range Separation                    ... NOT USED
Exchange Range Separation                   ... NOT USED
Finite Nucleus Model                        ... NOT USED
Auxiliary Coulomb fitting basis             ... NOT available
Auxiliary J/K fitting basis                 ... NOT available
Auxiliary Correlation fitting basis         ... NOT available
Auxiliary 'external' fitting basis          ... NOT available
Integral threshold                          ...     2.500000e-11
Primitive cut-off                           ...     2.500000e-12
Primitive pair pre-selection threshold      ...     2.500000e-12

Calculating pre-screening integrals         ... done (  0.0 sec) Dimension = 51
Organizing shell pair data                  ... done (  0.0 sec)
Shell pair information
Total number of shell pairs                 ...      1326
Shell pairs after pre-screening             ...      1310
Total number of primitive shell pairs       ...      4846
Primitive shell pairs kept                  ...      3762
          la=0 lb=0:    397 shell pairs
          la=1 lb=0:    471 shell pairs
          la=1 lb=1:    151 shell pairs
          la=2 lb=0:    168 shell pairs
          la=2 lb=1:    102 shell pairs
          la=2 lb=2:     21 shell pairs

Calculating one electron integrals          ... done (  0.0 sec)
Calculating Nuclear repulsion               ... done (  0.0 sec) ENN=    207.479647891539 Eh

SHARK setup successfully completed in   0.0 seconds

Maximum memory used throughout the entire GTOINT-calculation: 11.0 MB

Diagonalization of the overlap matrix:
Smallest eigenvalue                        ... 7.193e-04
Time for diagonalization                   ...    0.001 sec
Threshold for overlap eigenvalues          ... 1.000e-08
Number of eigenvalues below threshold      ... 0
Time for construction of square roots      ...    0.000 sec
Total time needed                          ...    0.001 sec

--------------
SCF ITERATIONS
--------------
ITER       Energy         Delta-E        Max-DP      RMS-DP      [F,P]     Damp
               ***  Starting incremental Fock matrix formation  ***
  0   -246.5068446974   0.000000000000 0.01213259  0.00038838  0.0294902 0.7000
                      *** Initiating the SOSCF procedure ***
                      *** Re-Reading the Fockian *** 
                      *** Removing any level shift *** 
ITER      Energy       Delta-E        Grad      Rot      Max-DP    RMS-DP
  1   -246.50806896  -0.0012242651  0.002376  0.002376  0.032432  0.001024
               *** Restarting incremental Fock matrix formation ***
  2   -246.51121924  -0.0031502748  0.003930  0.003927  0.012290  0.000353
  3   -246.51145258  -0.0002333467  0.001926  0.002692  0.003957  0.000164
  4   -246.51151266  -0.0000600712  0.000312  0.000401  0.000859  0.000039
  5   -246.51151469  -0.0000020348  0.000147  0.000306  0.000310  0.000014
  6   -246.51151517  -0.0000004787  0.000067  0.000248  0.000123  0.000008
  7   -246.51151528  -0.0000001132  0.000020  0.000100  0.000046  0.000003
  8   -246.51151530  -0.0000000186  0.000011  0.000040  0.000041  0.000002
  9   -246.51151530  -0.0000000040  0.000003  0.000004  0.000011  0.000000
                 **** Energy Check signals convergence ****
              ***Rediagonalizing the Fockian in SOSCF/NRSCF***

               *****************************************************
               *                     SUCCESS                       *
               *           SCF CONVERGED AFTER  10 CYCLES          *
               *****************************************************

Total Energy       :         -246.51151531 Eh           -6707.91936 eV
  Last Energy change         ...   -1.3238e-09  Tolerance :   1.0000e-08
  Last MAX-Density change    ...    2.5932e-06  Tolerance :   1.0000e-07
             **** THE GBW FILE WAS UPDATED (py.gbw) ****
             **** DENSITY py.scfp WAS UPDATED ****
             **** ENERGY FILE WAS UPDATED (py.en.tmp) ****
             **** THE GBW FILE WAS UPDATED (py.gbw) ****
             **** DENSITY py.scfp WAS UPDATED ****
Total SCF time: 0 days 0 hours 0 min 3 sec 

Maximum memory used throughout the entire SCF-calculation: 234.1 MB

-------------------------   --------------------
FINAL SINGLE POINT ENERGY      -246.511515305858
-------------------------   --------------------

------------------------------------------------------------------------------
                         ORCA SCF GRADIENT CALCULATION
------------------------------------------------------------------------------

Gradient of the Hartree-Fock SCF energy:
Hartree-Fock type                ... RHF
Number of operators              ...    1
Number of atoms                  ...   11
Basis set dimensions             ...  109
Integral neglect threshold       ... 2.5e-11
Integral primitive cutoff        ... 2.5e-12
SHARK Integral package           ... ON

Nuc. rep. gradient       (SHARK) ... done (  0.0 sec)
HCore & Overlap gradient (SHARK) ... done (  0.0 sec)
Two-Electron gradient    (SHARK) ... done (  1.8 sec)

------------------
CARTESIAN GRADIENT
------------------

   1   C   :   -0.000113712   -0.000034286    0.000069959
   2   C   :    0.005055967   -0.003194623    0.003788580
   3   C   :   -0.005510897    0.006219750   -0.008153104
   4   H   :   -0.000934060   -0.000389024    0.000739231
   5   C   :   -0.002693563    0.003905305   -0.005256083
   6   H   :    0.000070583    0.000021412   -0.000043845
   7   N   :    0.001763588    0.000531215   -0.001097213
   8   H   :   -0.001424242   -0.001106288    0.001881993
   9   C   :    0.007437675   -0.005642826    0.006958341
  10   H   :   -0.001111701   -0.000226013    0.000531761
  11   H   :   -0.002539637   -0.000084621    0.000580382

Difference to translation invariance:
           :   -0.0000000000    0.0000000000   -0.0000000000

Difference to rotation invariance:
           :   -0.0000000002   -0.0000000011   -0.0000000016

Norm of the cartesian gradient     ...    0.0198169854
RMS gradient                       ...    0.0034496944
MAX gradient                       ...    0.0081531044

-------
TIMINGS
-------

Total SCF gradient time            ...        1.798 sec

One electron gradient       ....       0.022 sec  (  1.2%)
Two electron gradient       ....       1.763 sec  ( 98.0%)

Maximum memory used throughout the entire SCFGRAD-calculation: 21.9 MB
------------------------------------------------------------------------------
                         ORCA GEOMETRY RELAXATION STEP
------------------------------------------------------------------------------

Reading the OPT-File                    .... done
Getting information on internals        .... done
Copying old internal coords+grads       .... done
Making the new internal coordinates     .... (new redundants).... done
Validating the new internal coordinates .... (new redundants).... done
Calculating the B-matrix                .... done
Calculating the G,G- and P matrices     .... done
Transforming gradient to internals      .... done
Projecting the internal gradient        .... done
Number of atoms                         ....  11
Number of internal coordinates          ....  47
Current Energy                          ....  -246.511515306 Eh
Current gradient norm                   ....     0.019816985 Eh/bohr
Maximum allowed component of the step   ....  0.300
Current trust radius                    ....  0.300
Updating the Hessian (BFGS)             .... done
Forming the augmented Hessian           .... done
Diagonalizing the augmented Hessian     .... done
Last element of RFO vector              ....  0.999345181
Lowest eigenvalues of augmented Hessian:
 -0.000535314  0.022725534  0.024467099  0.024793744  0.025567413
Length of the computed step             ....  0.036206717
The final length of the internal step   ....  0.036206717
Converting the step to cartesian space:
 Initial RMS(Int)=    0.0052812925
Transforming coordinates:
 Iter   0:  RMS(Cart)=    0.0084907541 RMS(Int)=    1.2961327196
 Iter   1:  RMS(Cart)=    0.0000366940 RMS(Int)=    0.9164967689
 Iter   2:  RMS(Cart)=    0.0000001075 RMS(Int)=    0.0000001180
 Iter   3:  RMS(Cart)=    0.0000000011 RMS(Int)=    0.0000000009
done
Storing new coordinates                 .... done

                                .--------------------.
          ----------------------|Geometry convergence|-------------------------
          Item                value                   Tolerance       Converged
          ---------------------------------------------------------------------
          Energy change      -0.0149967040            0.0000050000      NO
          RMS gradient        0.0021861039            0.0001000000      NO
          MAX gradient        0.0071118334            0.0003000000      NO
          RMS step            0.0052812925            0.0020000000      NO
          MAX step            0.0154456360            0.0040000000      NO
          ........................................................
          Max(Bonds)      0.0082      Max(Angles)    0.56
          Max(Dihed)        0.00      Max(Improp)    0.00
          ---------------------------------------------------------------------

The optimization has not yet converged - more geometry cycles are needed


    ---------------------------------------------------------------------------
                         Redundant Internal Coordinates
                            (Angstroem and degrees)

        Definition                    Value    dE/dq     Step     New-Value
    ----------------------------------------------------------------------------
     1. B(C   1,C   0)                1.3824 -0.003539  0.0036    1.3859   
     2. B(C   2,C   1)                1.3881 -0.000266  0.0002    1.3883   
     3. B(H   3,C   1)                1.0824  0.000454 -0.0007    1.0817   
     4. B(C   4,C   0)                1.3824 -0.003539  0.0036    1.3859   
     5. B(H   5,C   0)                1.0821 -0.000086  0.0001    1.0823   
     6. B(N   6,C   2)                1.3249  0.007110 -0.0082    1.3168   
     7. B(H   7,C   2)                1.0807 -0.002124  0.0034    1.0841   
     8. B(C   8,N   6)                1.3250  0.007112 -0.0082    1.3168   
     9. B(C   8,C   4)                1.3881 -0.000268  0.0002    1.3883   
    10. B(H   9,C   4)                1.0824  0.000454 -0.0007    1.0817   
    11. B(H  10,C   8)                1.0807 -0.002124  0.0034    1.0841   
    12. A(C   1,C   0,H   5)          120.84 -0.000184   -0.01    120.83   
    13. A(C   1,C   0,C   4)          118.32  0.000367    0.02    118.34   
    14. A(C   4,C   0,H   5)          120.84 -0.000184   -0.01    120.83   
    15. A(C   0,C   1,C   2)          118.89  0.003303   -0.48    118.41   
    16. A(C   0,C   1,H   3)          120.61 -0.002846    0.45    121.07   
    17. A(C   2,C   1,H   3)          120.50 -0.000457    0.02    120.52   
    18. A(C   1,C   2,N   6)          122.61 -0.003676    0.56    123.17   
    19. A(N   6,C   2,H   7)          117.28  0.003381   -0.56    116.72   
    20. A(C   1,C   2,H   7)          120.10  0.000295    0.01    120.11   
    21. A(C   8,C   4,H   9)          120.50 -0.000458    0.02    120.52   
    22. A(C   0,C   4,H   9)          120.61 -0.002846    0.45    121.07   
    23. A(C   0,C   4,C   8)          118.89  0.003304   -0.48    118.41   
    24. A(C   2,N   6,C   8)          118.67  0.000378   -0.18    118.49   
    25. A(C   4,C   8,H  10)          120.10  0.000295    0.01    120.11   
    26. A(C   4,C   8,N   6)          122.61 -0.003676    0.56    123.17   
    27. A(N   6,C   8,H  10)          117.28  0.003381   -0.56    116.72   
    28. D(H   3,C   1,C   0,H   5)     -0.00 -0.000000    0.00     -0.00   
    29. D(C   2,C   1,C   0,C   4)      0.00  0.000000   -0.00     -0.00   
    30. D(H   3,C   1,C   0,C   4)    180.00 -0.000000    0.00    180.00   
    31. D(C   2,C   1,C   0,H   5)    180.00 -0.000000    0.00    180.00   
    32. D(N   6,C   2,C   1,H   3)   -180.00  0.000000   -0.00   -180.00   
    33. D(H   7,C   2,C   1,C   0)   -180.00  0.000000   -0.00   -180.00   
    34. D(N   6,C   2,C   1,C   0)     -0.00 -0.000000    0.00      0.00   
    35. D(H   7,C   2,C   1,H   3)      0.00  0.000000   -0.00      0.00   
    36. D(H   9,C   4,C   0,H   5)      0.00  0.000000   -0.00      0.00   
    37. D(H   9,C   4,C   0,C   1)    180.00 -0.000000    0.00    180.00   
    38. D(C   8,C   4,C   0,H   5)   -180.00  0.000000   -0.00   -180.00   
    39. D(C   8,C   4,C   0,C   1)     -0.00 -0.000000    0.00      0.00   
    40. D(C   8,N   6,C   2,H   7)    180.00 -0.000000    0.00    180.00   
    41. D(C   8,N   6,C   2,C   1)      0.00  0.000000   -0.00     -0.00   
    42. D(N   6,C   8,C   4,C   0)      0.00  0.000000   -0.00     -0.00   
    43. D(H  10,C   8,N   6,C   2)    180.00 -0.000000    0.00    180.00   
    44. D(C   4,C   8,N   6,C   2)     -0.00 -0.000000    0.00      0.00   
    45. D(H  10,C   8,C   4,H   9)     -0.00 -0.000000    0.00      0.00   
    46. D(H  10,C   8,C   4,C   0)   -180.00  0.000000   -0.00   -180.00   
    47. D(N   6,C   8,C   4,H   9)   -180.00  0.000000   -0.00   -180.00   
    ----------------------------------------------------------------------------

         *************************************************************
         *                GEOMETRY OPTIMIZATION CYCLE   3            *
         *************************************************************
---------------------------------
CARTESIAN COORDINATES (ANGSTROEM)
---------------------------------
  C     -1.806262    1.020456   -1.175607
  C     -1.887017    1.805444   -2.314930
  C     -0.712694    2.118543   -2.985996
  H     -2.839812    2.167926   -2.676649
  C     -0.556413    0.586780   -0.762580
  H     -2.697008    0.752787   -0.622233
  N      0.474077    1.705698   -2.592262
  H     -0.743912    2.730686   -3.880154
  C      0.552492    0.959791   -1.509963
  H     -0.442436   -0.027768    0.120252
  H      1.543204    0.635977   -1.211890

----------------------------
CARTESIAN COORDINATES (A.U.)
----------------------------
  NO LB      ZA    FRAG     MASS         X           Y           Z
   0 C     6.0000    0    12.011   -3.413340    1.928383   -2.221575
   1 C     6.0000    0    12.011   -3.565945    3.411795   -4.374583
   2 C     6.0000    0    12.011   -1.346797    4.003467   -5.642714
   3 H     1.0000    0     1.008   -5.366467    4.096786   -5.058133
   4 C     6.0000    0    12.011   -1.051468    1.108853   -1.441068
   5 H     1.0000    0     1.008   -5.096606    1.422561   -1.175849
   6 N     7.0000    0    14.007    0.895876    3.223302   -4.898665
   7 H     1.0000    0     1.008   -1.405789    5.160249   -7.332429
   8 C     6.0000    0    12.011    1.044059    1.813742   -2.853416
   9 H     1.0000    0     1.008   -0.836082   -0.052473    0.227244
  10 H     1.0000    0     1.008    2.916233    1.201822   -2.290140

--------------------------------
INTERNAL COORDINATES (ANGSTROEM)
--------------------------------
 C      0   0   0     0.000000000000     0.00000000     0.00000000
 C      1   0   0     1.385923529550     0.00000000     0.00000000
 C      2   1   0     1.388306260767   118.41236521     0.00000000
 H      2   1   3     1.081689496889   121.06636556   179.99998903
 C      1   2   3     1.385925426856   118.34442475     0.00000000
 H      1   2   3     1.082265353258   120.82779048   179.99997842
 N      3   2   1     1.316774012045   123.16919837     0.00000000
 H      3   2   1     1.084072534476   120.11125421   180.00001770
 C      7   3   2     1.316775879770   118.49242896     0.00000000
 H      5   1   2     1.081689567697   121.06634406   180.00003080
 H      9   7   3     1.084072394325   116.71939899   179.99998314

---------------------------
INTERNAL COORDINATES (A.U.)
---------------------------
 C      0   0   0     0.000000000000     0.00000000     0.00000000
 C      1   0   0     2.619015913407     0.00000000     0.00000000
 C      2   1   0     2.623518622858   118.41236521     0.00000000
 H      2   1   3     2.044096911059   121.06636556   179.99998903
 C      1   2   3     2.619019498797   118.34442475     0.00000000
 H      1   2   3     2.045185121889   120.82779048   179.99997842
 N      3   2   1     2.488342263029   123.16919837     0.00000000
 H      3   2   1     2.048600199466   120.11125421   180.00001770
 C      7   3   2     2.488345792519   118.49242896     0.00000000
 H      5   1   2     2.044097044867   121.06634406   180.00003080
 H      9   7   3     2.048599934618   116.71939899   179.99998314

------------------------------------------------------------------------------
                   ___                                                        
                  /   \      - P O W E R E D   B Y -                         
                 /     \                                                     
                 |  |  |   _    _      __       _____    __    __             
                 |  |  |  | |  | |    /  \     |  _  \  |  |  /  |          
                  \  \/   | |  | |   /    \    | | | |  |  | /  /          
                 / \  \   | |__| |  /  /\  \   | |_| |  |  |/  /          
                |  |  |   |  __  | /  /__\  \  |    /   |      \           
                |  |  |   | |  | | |   __   |  |    \   |  |\   \          
                \     /   | |  | | |  |  |  |  | |\  \  |  | \   \       
                 \___/    |_|  |_| |__|  |__|  |_| \__\ |__|  \__/        
                                                                              
                      - O R C A' S   B I G   F R I E N D -                    
                                      &                                       
                       - I N T E G R A L  F E E D E R -                       
                                                                              
 v1 FN, 2020, v2 2021                                                         
------------------------------------------------------------------------------


Reading SHARK input file py.SHARKINP.tmp ... ok
----------------------
SHARK INTEGRAL PACKAGE
----------------------

Number of atoms                             ...     11
Number of basis functions                   ...    109
Number of shells                            ...     51
Maximum angular momentum                    ...      2
Integral batch strategy                     ... SHARK/LIBINT Hybrid
RI-J (if used) integral strategy            ... SPLIT-RIJ (Revised 2003 algorithm where possible)
Printlevel                                  ...      1
Contraction scheme used                     ... SEGMENTED contraction
Coulomb Range Separation                    ... NOT USED
Exchange Range Separation                   ... NOT USED
Finite Nucleus Model                        ... NOT USED
Auxiliary Coulomb fitting basis             ... NOT available
Auxiliary J/K fitting basis                 ... NOT available
Auxiliary Correlation fitting basis         ... NOT available
Auxiliary 'external' fitting basis          ... NOT available
Integral threshold                          ...     2.500000e-11
Primitive cut-off                           ...     2.500000e-12
Primitive pair pre-selection threshold      ...     2.500000e-12

Calculating pre-screening integrals         ... done (  0.0 sec) Dimension = 51
Organizing shell pair data                  ... done (  0.0 sec)
Shell pair information
Total number of shell pairs                 ...      1326
Shell pairs after pre-screening             ...      1310
Total number of primitive shell pairs       ...      4846
Primitive shell pairs kept                  ...      3764
          la=0 lb=0:    397 shell pairs
          la=1 lb=0:    471 shell pairs
          la=1 lb=1:    151 shell pairs
[...]
     20       0.000135   0.152308  -0.201577   0.090243  -0.051476  -0.076776
     21      -0.051544  -0.023558  -0.210938   0.030112   0.051270  -0.002673
     22      -0.421979  -0.192703  -0.080705  -0.182554   0.419789  -0.022047
     23      -0.287100  -0.131108   0.156519   0.263274   0.285574  -0.015009
     24       0.018919  -0.011233  -0.098035   0.317140   0.006497   0.012198
     25       0.154841  -0.091965   0.114276  -0.060108   0.053395   0.099919
     26       0.105348  -0.062568  -0.150358   0.031455   0.036321   0.067983
     27      -0.040857  -0.032214   0.183085  -0.155190   0.026757  -0.065153
     28      -0.334554  -0.263584   0.107358   0.186212   0.219131  -0.533607
     29      -0.227624  -0.179333  -0.190729  -0.245808   0.149119  -0.363041
     30       0.051497  -0.023663  -0.239503   0.285185   0.051263  -0.002712
     31       0.421480  -0.193704  -0.054620  -0.105912   0.419794  -0.022131
     32       0.286753  -0.131789   0.123242   0.104792   0.285592  -0.015053
                 12         13         14         15         16         17    
      0       0.000000   0.008323  -0.020902   0.308636   0.000042  -0.012326
      1      -0.000010   0.068107  -0.006288   0.092762  -0.000011  -0.101107
      2      -0.000008   0.046328   0.012971  -0.191759  -0.000039  -0.068763
      3      -0.009038   0.002974   0.388361   0.032819  -0.007528   0.008683
      4      -0.074082   0.024102  -0.134359  -0.035185  -0.061459   0.071095
      5      -0.050397   0.016418   0.127721   0.045874  -0.041804   0.048360
      6      -0.005311  -0.010729   0.016980  -0.040994   0.012260  -0.003250
      7      -0.043488  -0.087752  -0.002092  -0.155835   0.100320  -0.026592
      8      -0.029586  -0.059697   0.000148   0.236337   0.068283  -0.018119
      9       0.062374  -0.010750   0.457110  -0.029199   0.031603  -0.045845
     10       0.510449  -0.088196  -0.098949  -0.122586   0.259063  -0.375126
     11       0.347279  -0.059963   0.063393   0.185261   0.176323  -0.255185
     12       0.009055   0.002931  -0.024381  -0.041218   0.007512   0.008664
     13       0.074109   0.024059   0.243712   0.032647   0.061515   0.071052
     14       0.050408   0.016347  -0.353868  -0.040660   0.041848   0.048309
     15       0.000001  -0.052480  -0.005577   0.332477   0.000083   0.068853
     16       0.000022  -0.429286  -0.001673   0.099875   0.000107   0.562476
     17       0.000016  -0.292144   0.003629  -0.206527   0.000072   0.382889
     18      -0.000012   0.003124  -0.351227   0.062437   0.000024  -0.000049
     19       0.000013   0.025666  -0.105542   0.018771   0.000009  -0.000482
     20       0.000019   0.017472   0.218183  -0.038804  -0.000009  -0.000308
     21       0.032439   0.058233   0.014909  -0.333463  -0.061943   0.020718
     22       0.265474   0.477064  -0.007603  -0.146658  -0.507029   0.169322
     23       0.180617   0.324576   0.007939   0.275764  -0.344923   0.115171
     24       0.005303  -0.010710   0.005021  -0.276972  -0.012312  -0.003268
     25       0.043434  -0.087704   0.008744   0.060285  -0.100399  -0.026545
     26       0.029548  -0.059672  -0.013768  -0.038768  -0.068307  -0.018062
     27      -0.062347  -0.010764   0.068567  -0.215938  -0.031673  -0.045810
     28      -0.510406  -0.087859   0.257056   0.048917  -0.259317  -0.374822
     29      -0.347267  -0.059796  -0.389868  -0.032850  -0.176432  -0.255040
     30      -0.032408   0.058265  -0.004584  -0.410228   0.061920   0.020599
     31      -0.265273   0.476895   0.010413  -0.076930   0.507454   0.168999
     32      -0.180484   0.324450  -0.014511   0.186208   0.345315   0.115043
                 18         19         20         21         22         23    
      0       0.021812   0.028569  -0.101507  -0.031943  -0.004393   0.041569
      1      -0.019968   0.008710   0.092867   0.029243  -0.001304  -0.038069
      2       0.025482  -0.017931  -0.118334  -0.037235   0.002706   0.048490
      3      -0.112482   0.014878  -0.028118  -0.020614  -0.024826  -0.018548
      4       0.000596  -0.056337  -0.068547  -0.038378  -0.008306  -0.016812
      5       0.019311   0.080129   0.105822   0.060115   0.016669   0.028042
      6       0.093465  -0.034759   0.096257   0.114554   0.081883  -0.049963
      7       0.049334   0.065187  -0.028718  -0.010161  -0.038949  -0.000634
      8      -0.089325  -0.089566   0.024913  -0.005638   0.042543   0.009900
      9      -0.285051  -0.251487  -0.125950   0.256607  -0.161755   0.139101
     10      -0.156079  -0.321975  -0.169747   0.234317  -0.142977   0.138731
     11       0.280694   0.518458   0.272003  -0.390501   0.239187  -0.228895
     12       0.055835  -0.084917   0.127173   0.073595  -0.026164   0.037029
     13       0.051206   0.035135  -0.022043  -0.010102  -0.007039  -0.000116
     14      -0.085327  -0.036401   0.009588   0.001639   0.015044  -0.006480
     15       0.252712   0.034224  -0.453598   0.343368  -0.005058  -0.193813
     16      -0.231630   0.010904   0.415565  -0.314566  -0.001660   0.177524
     17       0.294773  -0.022197  -0.528939   0.400586   0.003356  -0.226087
     18       0.022810   0.058919  -0.064159  -0.083089  -0.025760  -0.031854
     19      -0.020842   0.017796   0.058674   0.076110  -0.007706   0.029175
     20       0.026546  -0.036741  -0.074709  -0.096950   0.015954  -0.037160
     21       0.404793  -0.154339  -0.005124  -0.082398   0.615054   0.580531
     22       0.033659   0.076937  -0.019090   0.008560  -0.079162  -0.045775
     23      -0.122023  -0.085429   0.029079   0.002216   0.005930  -0.036945
     24      -0.128262   0.089711  -0.001663  -0.041234  -0.022646   0.026316
     25      -0.017393  -0.048794  -0.057981  -0.057013   0.056720   0.022294
     26       0.048613   0.055629   0.085503   0.091198  -0.079308  -0.037497
     27       0.400217  -0.656571   0.344306  -0.514752  -0.317196  -0.298493
     28       0.050148   0.049007  -0.029028   0.002399  -0.000866   0.007239
     29      -0.145337   0.045882  -0.019244   0.088901   0.058227   0.042957
     30      -0.259926   0.048802   0.033970   0.027432   0.180989  -0.218458
     31      -0.166398  -0.108649  -0.007089   0.041327   0.318379  -0.285890
     32       0.291125   0.150823   0.004396  -0.065669  -0.500442   0.459453
                 24         25         26         27         28         29    
      0       0.061883  -0.083862  -0.225010  -0.120785  -0.000527  -0.020763
      1      -0.056666  -0.025224   0.205982  -0.036449   0.000501  -0.006237
      2       0.072172   0.052133  -0.262360   0.075265  -0.000642   0.012895
      3      -0.119277   0.023829   0.050823   0.191382   0.012398   0.021200
      4      -0.029293   0.081060  -0.134766   0.101663  -0.006506  -0.009014
      5       0.064472  -0.123425   0.188962  -0.183796   0.007336   0.009444
      6       0.038104   0.127515  -0.203060  -0.288292   0.000320  -0.001290
      7       0.053922  -0.040756   0.079750  -0.017405   0.033218   0.030256
      8      -0.086097   0.037012  -0.080756   0.077349  -0.048883  -0.044241
      9       0.088294  -0.264002   0.247463  -0.073300  -0.164314  -0.261359
     10       0.200681  -0.186466   0.013627  -0.182728   0.064938   0.101602
     11      -0.310815   0.321487  -0.064469   0.281761  -0.065945  -0.102408
     12       0.108462   0.145339   0.196232   0.263760   0.004449  -0.004070
     13       0.039166  -0.030209  -0.091132   0.035271  -0.008957   0.014093
     14      -0.077045   0.018305   0.098716  -0.099206   0.012366  -0.019985
     15      -0.310507  -0.107673   0.294605  -0.147429   0.000232   0.244082
     16       0.284420  -0.032271  -0.269952  -0.044102  -0.000444   0.073345
     17      -0.362256   0.066769   0.343867   0.091293   0.000609  -0.151634
     18       0.083420  -0.070116   0.149330   0.116041   0.000580  -0.000177
     19      -0.076391  -0.021101  -0.136673   0.034978  -0.000530  -0.000055
     20       0.097303   0.043603   0.174074  -0.072249   0.000675   0.000113
     21      -0.372486  -0.474511   0.228567   0.406743   0.013909   0.013176
     22       0.094242  -0.003068   0.051103  -0.083652  -0.381716  -0.341172
     23      -0.071642   0.089697  -0.116188   0.049893   0.558559   0.499102
     24      -0.107940  -0.002529  -0.028625  -0.174432  -0.055089   0.048802
     25       0.010012   0.078337   0.132078  -0.121803   0.016758  -0.015801
     26       0.004670  -0.114691  -0.188992   0.210353  -0.014741   0.014463
     27      -0.374463  -0.440230  -0.148087  -0.337372  -0.023786   0.034674
     28       0.061586  -0.025110  -0.105016   0.059398   0.107882  -0.168953
     29      -0.023277   0.115943   0.180940  -0.026732  -0.154297   0.242106
     30       0.033595  -0.245040  -0.199627   0.068448   0.624034  -0.550975
     31       0.216349  -0.213049  -0.077333   0.226434  -0.200526   0.177497
     32      -0.324039   0.357182   0.149497  -0.345091   0.182686  -0.161960
                 30         31         32    
      0      -0.059970  -0.003196   0.036673
      1      -0.018021   0.003001   0.011016
      2       0.037256  -0.003838  -0.022777
      3       0.019783   0.054307   0.047339
      4      -0.004573  -0.020010  -0.018952
      5       0.003169   0.019660   0.019356
      6      -0.000512  -0.003024  -0.002652
      7      -0.016301  -0.009790  -0.009489
      8       0.024051   0.014933   0.014423
      9      -0.209469  -0.598227  -0.521953
     10       0.076608   0.227692   0.200273
     11      -0.074989  -0.227251  -0.200649
     12       0.002490   0.005411  -0.007224
     13       0.011254  -0.034653   0.031078
     14      -0.016988   0.049963  -0.044383
     15       0.679357   0.002955  -0.388521
     16       0.204158  -0.003511  -0.116750
     17      -0.422061   0.004633   0.241362
     18       0.000173  -0.000500   0.000126
     19       0.000053   0.000457   0.000037
     20      -0.000109  -0.000582  -0.000077
     21      -0.005613  -0.000252  -0.000046
     22       0.178728   0.105517   0.098515
     23      -0.261689  -0.155046  -0.144794
     24      -0.026967   0.017598  -0.016967
     25       0.007988  -0.003578   0.003605
     26      -0.006898   0.002099  -0.002251
     27       0.019967  -0.071618   0.065368
     28      -0.133423   0.385427  -0.338268
     29       0.192523  -0.553653   0.485463
     30       0.289968  -0.173074   0.162194
     31      -0.092630   0.053407  -0.049930
     32       0.084079  -0.047422   0.044267


-----------
IR SPECTRUM
-----------

 Mode   freq       eps      Int      T**2         TX        TY        TZ
       cm**-1   L/(mol*cm) km/mol    a.u.
----------------------------------------------------------------------------
  6:    437.12   0.000000    0.00  0.000000  ( 0.000000 -0.000030 -0.000029)
  7:    466.86   0.000850    4.29  0.000568  (-0.002402 -0.019609 -0.013334)
  8:    656.63   0.001167    5.90  0.000555  (-0.019385 -0.005821  0.012037)
  9:    719.73   0.000074    0.37  0.000032  ( 0.003157 -0.002882  0.003689)
 10:    775.22   0.012489   63.11  0.005027  ( 0.007132  0.058328  0.039678)
 11:    836.95   0.002754   13.92  0.001027  (-0.003223 -0.026354 -0.017944)
 12:    981.78   0.000000    0.00  0.000000  (-0.000002  0.000003  0.000010)
 13:   1069.74   0.000028    0.14  0.000008  (-0.000288 -0.002354 -0.001618)
 14:   1093.89   0.001434    7.25  0.000409  ( 0.016648  0.005001 -0.010338)
 15:   1116.79   0.001464    7.40  0.000409  (-0.016653 -0.004998  0.010335)
 16:   1127.36   0.000000    0.00  0.000000  (-0.000008  0.000003  0.000000)
 17:   1131.26   0.000088    0.44  0.000024  (-0.000496 -0.004055 -0.002756)
 18:   1152.36   0.000176    0.89  0.000048  (-0.003875  0.003530 -0.004485)
 19:   1170.56   0.000873    4.41  0.000233  (-0.012570 -0.003764  0.007786)
 20:   1186.39   0.001505    7.60  0.000396  (-0.011110  0.010194 -0.012980)
 21:   1309.09   0.000000    0.00  0.000000  (-0.000005 -0.000006  0.000002)
 22:   1329.34   0.001171    5.92  0.000275  ( 0.013656  0.004094 -0.008467)
 23:   1486.38   0.000069    0.35  0.000014  ( 0.002102 -0.001953  0.002503)
 24:   1596.48   0.008114   41.00  0.001586  (-0.022249  0.020393 -0.025982)
 25:   1645.27   0.001708    8.63  0.000324  (-0.014821 -0.004447  0.009197)
 26:   1793.59   0.004543   22.96  0.000790  (-0.015742  0.014385 -0.018319)
 27:   1801.06   0.008216   41.52  0.001424  (-0.031041 -0.009343  0.019308)
 28:   3336.98   0.004907   24.80  0.000459  (-0.012020  0.010955 -0.013944)
 29:   3338.31   0.000846    4.28  0.000079  ( 0.007295  0.002223 -0.004578)
 30:   3351.15   0.002392   12.09  0.000223  (-0.012271 -0.003705  0.007646)
 31:   3369.87   0.004474   22.61  0.000414  ( 0.011395 -0.010414  0.013266)
 32:   3376.77   0.000523    2.64  0.000048  ( 0.005707  0.001730 -0.003567)

* The epsilon (eps) is given for a Dirac delta lineshape.
** The dipole moment derivative (T) already includes vibrational overlap.

The first frequency considered to be a vibration is 6
The total number of vibrations considered is 27


--------------------------
THERMOCHEMISTRY AT 298.15K
--------------------------

Temperature         ... 298.15 K
Pressure            ... 1.00 atm
Total Mass          ... 79.10 AMU

Throughout the following assumptions are being made:
  (1) The electronic state is orbitally nondegenerate
  (2) There are no thermally accessible electronically excited states
  (3) Hindered rotations indicated by low frequency modes are not
      treated as such but are treated as vibrations and this may
      cause some error
  (4) All equations used are the standard statistical mechanics
      equations for an ideal gas
  (5) All vibrations are strictly harmonic

freq.     437.12  E(vib)   ...       0.17 
freq.     466.86  E(vib)   ...       0.16 
freq.     656.63  E(vib)   ...       0.08 
freq.     719.73  E(vib)   ...       0.07 
freq.     775.22  E(vib)   ...       0.05 
freq.     836.95  E(vib)   ...       0.04 
freq.     981.78  E(vib)   ...       0.02 
freq.    1069.74  E(vib)   ...       0.02 
freq.    1093.89  E(vib)   ...       0.02 
freq.    1116.79  E(vib)   ...       0.01 
freq.    1127.36  E(vib)   ...       0.01 
freq.    1131.26  E(vib)   ...       0.01 
freq.    1152.36  E(vib)   ...       0.01 
freq.    1170.56  E(vib)   ...       0.01 
freq.    1186.39  E(vib)   ...       0.01 
freq.    1309.09  E(vib)   ...       0.01 
freq.    1329.34  E(vib)   ...       0.01 
freq.    1486.38  E(vib)   ...       0.00 
freq.    1596.48  E(vib)   ...       0.00 
freq.    1645.27  E(vib)   ...       0.00 
freq.    1793.59  E(vib)   ...       0.00 
freq.    1801.06  E(vib)   ...       0.00 
freq.    3336.98  E(vib)   ...       0.00 
freq.    3338.31  E(vib)   ...       0.00 
freq.    3351.15  E(vib)   ...       0.00 
freq.    3369.87  E(vib)   ...       0.00 
freq.    3376.77  E(vib)   ...       0.00 

------------
INNER ENERGY
------------

The inner energy is: U= E(el) + E(ZPE) + E(vib) + E(rot) + E(trans)
    E(el)   - is the total energy from the electronic structure calculation
              = E(kin-el) + E(nuc-el) + E(el-el) + E(nuc-nuc)
    E(ZPE)  - the the zero temperature vibrational energy from the frequency calculation
    E(vib)  - the the finite temperature correction to E(ZPE) due to population
              of excited vibrational states
    E(rot)  - is the rotational thermal energy
    E(trans)- is the translational thermal energy

Summary of contributions to the inner energy U:
Electronic energy                ...   -246.51180052 Eh
Zero point energy                ...      0.09490148 Eh      59.55 kcal/mol
Thermal vibrational correction   ...      0.00116786 Eh       0.73 kcal/mol
Thermal rotational correction    ...      0.00141627 Eh       0.89 kcal/mol
Thermal translational correction ...      0.00141627 Eh       0.89 kcal/mol
-----------------------------------------------------------------------
Total thermal energy                   -246.41289864 Eh


Summary of corrections to the electronic energy:
(perhaps to be used in another calculation)
Total thermal correction                  0.00400040 Eh       2.51 kcal/mol
Non-thermal (ZPE) correction              0.09490148 Eh      59.55 kcal/mol
-----------------------------------------------------------------------
Total correction                          0.09890188 Eh      62.06 kcal/mol


--------
ENTHALPY
--------

The enthalpy is H = U + kB*T
                kB is Boltzmann's constant
Total free energy                 ...   -246.41289864 Eh 
Thermal Enthalpy correction       ...      0.00094421 Eh       0.59 kcal/mol
-----------------------------------------------------------------------
Total Enthalpy                    ...   -246.41195443 Eh


Note: Rotational entropy computed according to Herzberg 
Infrared and Raman Spectra, Chapter V,1, Van Nostrand Reinhold, 1945 
Point Group:  C2v, Symmetry Number:   2  
Rotational constants in cm-1:     0.203847     0.197444     0.100297 

Vibrational entropy computed according to the QRRHO of S. Grimme
Chem.Eur.J. 2012 18 9955


-------
ENTROPY
-------

The entropy contributions are T*S = T*(S(el)+S(vib)+S(rot)+S(trans))
     S(el)   - electronic entropy
     S(vib)  - vibrational entropy
     S(rot)  - rotational entropy
     S(trans)- translational entropy
The entropies will be listed as multiplied by the temperature to get
units of energy

Electronic entropy                ...      0.00000000 Eh      0.00 kcal/mol
Vibrational entropy               ...      0.00155253 Eh      0.97 kcal/mol
Rotational entropy                ...      0.01145866 Eh      7.19 kcal/mol
Translational entropy             ...      0.01853922 Eh     11.63 kcal/mol
-----------------------------------------------------------------------
Final entropy term                ...      0.03155041 Eh     19.80 kcal/mol

In case the symmetry of your molecule has not been determined correctly
or in case you have a reason to use a different symmetry number we print 
out the resulting rotational entropy values for sn=1,12 :
 --------------------------------------------------------
|  sn= 1 | S(rot)=       0.01211311 Eh      7.60 kcal/mol|
|  sn= 2 | S(rot)=       0.01145866 Eh      7.19 kcal/mol|
|  sn= 3 | S(rot)=       0.01107583 Eh      6.95 kcal/mol|
|  sn= 4 | S(rot)=       0.01080420 Eh      6.78 kcal/mol|
|  sn= 5 | S(rot)=       0.01059351 Eh      6.65 kcal/mol|
|  sn= 6 | S(rot)=       0.01042137 Eh      6.54 kcal/mol|
|  sn= 7 | S(rot)=       0.01027582 Eh      6.45 kcal/mol|
|  sn= 8 | S(rot)=       0.01014975 Eh      6.37 kcal/mol|
|  sn= 9 | S(rot)=       0.01003854 Eh      6.30 kcal/mol|
|  sn=10 | S(rot)=       0.00993906 Eh      6.24 kcal/mol|
|  sn=11 | S(rot)=       0.00984907 Eh      6.18 kcal/mol|
|  sn=12 | S(rot)=       0.00976691 Eh      6.13 kcal/mol|
 --------------------------------------------------------


-------------------
GIBBS FREE ENERGY
-------------------

The Gibbs free energy is G = H - T*S

Total enthalpy                    ...   -246.41195443 Eh 
Total entropy correction          ...     -0.03155041 Eh    -19.80 kcal/mol
-----------------------------------------------------------------------
Final Gibbs free energy         ...   -246.44350484 Eh

For completeness - the Gibbs free energy minus the electronic energy
G-E(el)                           ...      0.06829568 Eh     42.86 kcal/mol


Timings for individual modules:

Sum of individual times         ...       68.037 sec (=   1.134 min)
GTO integral calculation        ...        0.361 sec (=   0.006 min)   0.5 %
SCF iterations                  ...       17.411 sec (=   0.290 min)  25.6 %
SCF Gradient evaluation         ...        9.641 sec (=   0.161 min)  14.2 %
Geometry relaxation             ...        0.198 sec (=   0.003 min)   0.3 %
Analytical frequency calculation...       40.426 sec (=   0.674 min)  59.4 %
                             ****ORCA TERMINATED NORMALLY****
TOTAL RUN TIME: 0 days 0 hours 1 minutes 8 seconds 298 msec
