
                                 *****************
                                 * O   R   C   A *
                                 *****************

                                            #,                                       
                                            ###                                      
                                            ####                                     
                                            #####                                    
                                            ######                                   
                                           ########,                                 
                                     ,,################,,,,,                         
                               ,,#################################,,                 
                          ,,##########################################,,             
                       ,#########################################, ''#####,          
                    ,#############################################,,   '####,        
                  ,##################################################,,,,####,       
                ,###########''''           ''''###############################       
              ,#####''   ,,,,##########,,,,          '''####'''          '####       
            ,##' ,,,,###########################,,,                        '##       
           ' ,,###''''                  '''############,,,                           
         ,,##''                                '''############,,,,        ,,,,,,###''
      ,#''                                            '''#######################'''  
     '                                                          ''''####''''         
             ,#######,   #######,   ,#######,      ##                                
            ,#'     '#,  ##    ##  ,#'     '#,    #''#        ######   ,####,        
            ##       ##  ##   ,#'  ##            #'  '#       #        #'  '#        
            ##       ##  #######   ##           ,######,      #####,   #    #        
            '#,     ,#'  ##    ##  '#,     ,#' ,#      #,         ##   #,  ,#        
             '#######'   ##     ##  '#######'  #'      '#     #####' # '####'        



                  #######################################################
                  #                        -***-                        #
                  #          Department of theory and spectroscopy      #
                  #    Directorship and core code : Frank Neese         #
                  #        Max Planck Institute fuer Kohlenforschung    #
                  #                Kaiser Wilhelm Platz 1               #
                  #                 D-45470 Muelheim/Ruhr               #
                  #                      Germany                        #
                  #                                                     #
                  #                  All rights reserved                #
                  #                        -***-                        #
                  #######################################################


                         Program Version 5.0.3 -  RELEASE  -


 With contributions from (in alphabetic order):
   Daniel Aravena         : Magnetic Suceptibility
   Michael Atanasov       : Ab Initio Ligand Field Theory (pilot matlab implementation)
   Alexander A. Auer      : GIAO ZORA, VPT2 properties, NMR spectrum
   Ute Becker             : Parallelization
   Giovanni Bistoni       : ED, misc. LED, open-shell LED, HFLD
   Martin Brehm           : Molecular dynamics
   Dmytro Bykov           : SCF Hessian
   Vijay G. Chilkuri      : MRCI spin determinant printing, contributions to CSF-ICE
   Dipayan Datta          : RHF DLPNO-CCSD density
   Achintya Kumar Dutta   : EOM-CC, STEOM-CC
   Dmitry Ganyushin       : Spin-Orbit,Spin-Spin,Magnetic field MRCI
   Miquel Garcia          : C-PCM and meta-GGA Hessian, CC/C-PCM, Gaussian charge scheme
   Yang Guo               : DLPNO-NEVPT2, F12-NEVPT2, CIM, IAO-localization
   Andreas Hansen         : Spin unrestricted coupled pair/coupled cluster methods
   Benjamin Helmich-Paris : MC-RPA, TRAH-SCF, COSX integrals
   Lee Huntington         : MR-EOM, pCC
   Robert Izsak           : Overlap fitted RIJCOSX, COSX-SCS-MP3, EOM
   Marcus Kettner         : VPT2
   Christian Kollmar      : KDIIS, OOCD, Brueckner-CCSD(T), CCSD density, CASPT2, CASPT2-K
   Simone Kossmann        : Meta GGA functionals, TD-DFT gradient, OOMP2, MP2 Hessian
   Martin Krupicka        : Initial AUTO-CI
   Lucas Lang             : DCDCAS
   Marvin Lechner         : AUTO-CI (C++ implementation), FIC-MRCC
   Dagmar Lenk            : GEPOL surface, SMD
   Dimitrios Liakos       : Extrapolation schemes; Compound Job, initial MDCI parallelization
   Dimitrios Manganas     : Further ROCIS development; embedding schemes
   Dimitrios Pantazis     : SARC Basis sets
   Anastasios Papadopoulos: AUTO-CI, single reference methods and gradients
   Taras Petrenko         : DFT Hessian,TD-DFT gradient, ASA, ECA, R-Raman, ABS, FL, XAS/XES, NRVS
   Peter Pinski           : DLPNO-MP2, DLPNO-MP2 Gradient
   Christoph Reimann      : Effective Core Potentials
   Marius Retegan         : Local ZFS, SOC
   Christoph Riplinger    : Optimizer, TS searches, QM/MM, DLPNO-CCSD(T), (RO)-DLPNO pert. Triples
   Tobias Risthaus        : Range-separated hybrids, TD-DFT gradient, RPA, STAB
   Michael Roemelt        : Original ROCIS implementation
   Masaaki Saitow         : Open-shell DLPNO-CCSD energy and density
   Barbara Sandhoefer     : DKH picture change effects
   Avijit Sen             : IP-ROCIS
   Kantharuban Sivalingam : CASSCF convergence, NEVPT2, FIC-MRCI
   Bernardo de Souza      : ESD, SOC TD-DFT
   Georgi Stoychev        : AutoAux, RI-MP2 NMR, DLPNO-MP2 response
   Willem Van den Heuvel  : Paramagnetic NMR
   Boris Wezisla          : Elementary symmetry handling
   Frank Wennmohs         : Technical directorship


 We gratefully acknowledge several colleagues who have allowed us to
 interface, adapt or use parts of their codes:
   Stefan Grimme, W. Hujo, H. Kruse, P. Pracht,  : VdW corrections, initial TS optimization,
                  C. Bannwarth, S. Ehlert          DFT functionals, gCP, sTDA/sTD-DF
   Ed Valeev, F. Pavosevic, A. Kumar             : LibInt (2-el integral package), F12 methods
   Garnet Chan, S. Sharma, J. Yang, R. Olivares  : DMRG
   Ulf Ekstrom                                   : XCFun DFT Library
   Mihaly Kallay                                 : mrcc  (arbitrary order and MRCC methods)
   Jiri Pittner, Ondrej Demel                    : Mk-CCSD
   Frank Weinhold                                : gennbo (NPA and NBO analysis)
   Christopher J. Cramer and Donald G. Truhlar   : smd solvation model
   Lars Goerigk                                  : TD-DFT with DH, B97 family of functionals
   V. Asgeirsson, H. Jonsson                     : NEB implementation
   FAccTs GmbH                                   : IRC, NEB, NEB-TS, DLPNO-Multilevel, CI-OPT
                                                   MM, QMMM, 2- and 3-layer-ONIOM, Crystal-QMMM,
                                                   LR-CPCM, SF, NACMEs, symmetry and pop. for TD-DFT,
                                                   nearIR, NL-DFT gradient (VV10), updates on ESD,
                                                   ML-optimized integration grids
   S Lehtola, MJT Oliveira, MAL Marques          : LibXC Library
   Liviu Ungur et al                             : ANISO software


 Your calculation uses the libint2 library for the computation of 2-el integrals
 For citations please refer to: http://libint.valeyev.net

 Your ORCA version has been built with support for libXC version: 5.1.0
 For citations please refer to: https://tddft.org/programs/libxc/

 This ORCA versions uses:
   CBLAS   interface :  Fast vector & matrix operations
   LAPACKE interface :  Fast linear algebra routines
   SCALAPACK package :  Parallel linear algebra routines
   Shared memory     :  Shared parallel matrices
   BLAS/LAPACK       :  OpenBLAS 0.3.19 NO_AFFINITY VORTEX SINGLE_THREADED
        Core in use  :  VORTEX
   Copyright (c) 2011-2014, The OpenBLAS Project


================================================================================

----- Orbital basis set information -----
Your calculation utilizes the basis: def2-SVP
   F. Weigend and R. Ahlrichs, Phys. Chem. Chem. Phys. 7, 3297 (2005).

================================================================================
                                        WARNINGS
                       Please study these warnings very carefully!
================================================================================


WARNING: Geometry Optimization
  ===> : Switching off AutoStart
         For restart on a previous wavefunction, please use MOREAD

INFO   : the flag for use of the SHARK integral package has been found!

================================================================================
                                       INPUT FILE
================================================================================
NAME = aspirin.inp
|  1> # avogadro generated ORCA input file 
|  2> # Basic Mode
|  3> # 
|  4> ! RHF OPT FREQ def2-SVP 
|  5> 
|  6> * xyz 0 1
|  7>    C        1.13028        0.19443        0.09949
|  8>    C        2.61174        0.26349        0.31996
|  9>    O        3.19210       -0.21987        1.28522
| 10>    O        3.19831        1.00240       -0.70129
| 11>    C        4.59322        1.05993       -0.61539
| 12>    C        5.16150        2.30684       -0.35132
| 13>    C        6.54969        2.42706       -0.26742
| 14>    C        7.36633        1.31008       -0.46118
| 15>    C        6.79829        0.06603       -0.74472
| 16>    C        5.40555       -0.05991       -0.82411
| 17>    C        4.81502       -1.36827       -1.16468
| 18>    O        5.22892       -2.34505       -0.33020
| 19>    O        4.02936       -1.53671       -2.07919
| 20>    H        0.75190       -0.75117        0.49730
| 21>    H        0.90152        0.21902       -0.96983
| 22>    H        0.64585        1.03399        0.60276
| 23>    H        4.52988        3.17919       -0.20747
| 24>    H        6.99747        3.39615       -0.05777
| 25>    H        8.44794        1.41455       -0.40621
| 26>    H        7.44319       -0.79049       -0.92893
| 27>    H        5.64068       -2.00429        0.48906
| 28> *
| 29> 
| 30> 
| 31>                          ****END OF INPUT****
================================================================================

                       *****************************
                       * Geometry Optimization Run *
                       *****************************

Geometry optimization settings:
Update method            Update   .... BFGS
Choice of coordinates    CoordSys .... Z-matrix Internals
Initial Hessian          InHess   .... Almoef's Model

Convergence Tolerances:
Energy Change            TolE     ....  5.0000e-06 Eh
Max. Gradient            TolMAXG  ....  3.0000e-04 Eh/bohr
RMS Gradient             TolRMSG  ....  1.0000e-04 Eh/bohr
Max. Displacement        TolMAXD  ....  4.0000e-03 bohr
RMS Displacement         TolRMSD  ....  2.0000e-03 bohr
Strict Convergence                ....  False
------------------------------------------------------------------------------
                        ORCA OPTIMIZATION COORDINATE SETUP
------------------------------------------------------------------------------

The optimization will be done in new redundant internal coordinates
Making redundant internal coordinates   ...  (new redundants) done
Evaluating the initial hessian          ...  (Almloef) done
Evaluating the coordinates              ...  done
Calculating the B-matrix                .... done
Calculating the G-matrix                .... done
Diagonalizing the G-matrix              .... done
Small eigenvalue found = 1.092e-02
Small eigenvalue found = 2.350e-02
The first mode is                       ....   36
The number of degrees of freedom        ....   57

    -----------------------------------------------------------------
                    Redundant Internal Coordinates


    -----------------------------------------------------------------
         Definition                    Initial Value    Approx d2E/dq
    -----------------------------------------------------------------
      1. B(C   1,C   0)                  1.4994         0.418072   
      2. B(O   2,C   1)                  1.2256         1.023550   
      3. B(O   3,C   1)                  1.3903         0.558929   
      4. B(C   4,O   3)                  1.3987         0.541923   
      5. B(C   5,C   4)                  1.3955         0.612267   
      6. B(C   6,C   5)                  1.3959         0.611379   
      7. B(C   7,C   6)                  1.3972         0.608551   
      8. B(C   8,C   7)                  1.3967         0.609643   
      9. B(C   9,C   8)                  1.4007         0.600770   
     10. B(C   9,C   4)                  1.3991         0.604251   
     11. B(C  10,C   9)                  1.4753         0.456712   
     12. B(O  11,C  10)                  1.3497         0.648821   
     13. B(O  12,C  10)                  1.2174         1.055149   
     14. B(H  13,C   0)                  1.0934         0.355594   
     15. B(H  14,C   0)                  1.0938         0.355118   
     16. B(H  15,C   0)                  1.0922         0.357254   
     17. B(H  16,C   5)                  1.0866         0.364668   
     18. B(H  17,C   6)                  1.0879         0.362846   
     19. B(H  18,C   7)                  1.0880         0.362711   
     20. B(H  19,C   8)                  1.0879         0.362932   
     21. B(H  20,O  11)                  0.9782         0.486351   
     22. A(H  14,C   0,H  15)          109.9040         0.289843   
     23. A(C   1,C   0,H  15)          109.5781         0.329956   
     24. A(H  13,C   0,H  15)          110.0993         0.289904   
     25. A(C   1,C   0,H  13)          109.1627         0.329703   
     26. A(C   1,C   0,H  14)          110.4484         0.329630   
     27. A(H  13,C   0,H  14)          107.6227         0.289631   
     28. A(O   2,C   1,O   3)          126.0376         0.460373   
     29. A(C   0,C   1,O   2)          124.4372         0.439636   
     30. A(C   0,C   1,O   3)          109.4708         0.394763   
     31. A(C   1,O   3,C   4)          113.4213         0.410590   
     32. A(O   3,C   4,C   5)          117.0312         0.420017   
     33. A(C   5,C   4,C   9)          120.4617         0.431089   
     34. A(O   3,C   4,C   9)          122.4754         0.419031   
     35. A(C   4,C   5,H  16)          120.3773         0.352912   
     36. A(C   4,C   5,C   6)          119.5572         0.431998   
     37. A(C   6,C   5,H  16)          120.0650         0.352825   
     38. A(C   7,C   6,H  17)          119.8863         0.352250   
     39. A(C   5,C   6,C   7)          120.2700         0.431526   
     40. A(C   5,C   6,H  17)          119.8420         0.352527   
     41. A(C   6,C   7,H  18)          119.8200         0.352228   
     42. A(C   8,C   7,H  18)          120.0057         0.352335   
     43. A(C   6,C   7,C   8)          120.1673         0.431306   
     44. A(C   7,C   8,H  19)          119.6415         0.352371   
     45. A(C   7,C   8,C   9)          119.7355         0.430310   
     46. A(C   9,C   8,H  19)          120.6014         0.351499   
     47. A(C   8,C   9,C  10)          119.3954         0.408712   
     48. A(C   4,C   9,C  10)          120.7879         0.409130   
     49. A(C   4,C   9,C   8)          119.7949         0.429625   
     50. A(C   9,C  10,O  11)          112.1062         0.411652   
     51. A(O  11,C  10,O  12)          124.2099         0.475775   
     52. A(C   9,C  10,O  12)          123.6734         0.449192   
     53. A(C  10,O  11,H  20)          113.2528         0.368759   
     54. D(O   3,C   1,C   0,H  13)    149.0083         0.012928   
     55. D(O   2,C   1,C   0,H  15)     87.1075         0.012928   
     56. D(O   2,C   1,C   0,H  13)    -33.5378         0.012928   
     57. D(O   2,C   1,C   0,H  14)   -151.6780         0.012928   
     58. D(O   3,C   1,C   0,H  14)     30.8681         0.012928   
     59. D(O   3,C   1,C   0,H  15)    -90.3464         0.012928   
     60. D(C   4,O   3,C   1,C   0)   -176.8051         0.022630   
     61. D(C   4,O   3,C   1,O   2)      5.7918         0.022630   
     62. D(C   9,C   4,O   3,C   1)     68.4552         0.021213   
     63. D(C   5,C   4,O   3,C   1)   -113.5846         0.021213   
     64. D(H  16,C   5,C   4,C   9)    178.8758         0.025901   
     65. D(C   6,C   5,C   4,C   9)     -1.3768         0.025901   
     66. D(C   6,C   5,C   4,O   3)   -179.3805         0.025901   
     67. D(H  16,C   5,C   4,O   3)      0.8721         0.025901   
     68. D(C   7,C   6,C   5,C   4)      0.7133         0.025822   
     69. D(H  17,C   6,C   5,H  16)     -0.0046         0.025822   
     70. D(H  17,C   6,C   5,C   4)   -179.7529         0.025822   
     71. D(C   7,C   6,C   5,H  16)   -179.5385         0.025822   
     72. D(H  18,C   7,C   6,H  17)     -0.2830         0.025570   
     73. D(H  18,C   7,C   6,C   5)    179.2507         0.025570   
     74. D(C   8,C   7,C   6,H  17)   -179.3187         0.025570   
     75. D(C   8,C   7,C   6,C   5)      0.2149         0.025570   
     76. D(H  19,C   8,C   7,H  18)     -1.1975         0.025667   
     77. D(H  19,C   8,C   7,C   6)    177.8365         0.025667   
     78. D(C   9,C   8,C   7,H  18)   -179.5190         0.025667   
     79. D(C   9,C   8,C   7,C   6)     -0.4851         0.025667   
     80. D(C  10,C   9,C   4,C   5)   -177.1807         0.025190   
     81. D(C  10,C   9,C   4,O   3)      0.7114         0.025190   
     82. D(C   8,C   9,C   4,C   5)      1.1091         0.025190   
     83. D(C   4,C   9,C   8,C   7)     -0.1724         0.024885   
     84. D(C   8,C   9,C   4,O   3)    179.0012         0.025190   
     85. D(C  10,C   9,C   8,H  19)     -0.1638         0.024885   
     86. D(C  10,C   9,C   8,C   7)    178.1413         0.024885   
     87. D(C   4,C   9,C   8,H  19)   -178.4775         0.024885   
     88. D(O  12,C  10,C   9,C   8)   -125.8453         0.014212   
     89. D(O  12,C  10,C   9,C   4)     52.4512         0.014212   
     90. D(O  11,C  10,C   9,C   8)     55.2933         0.014212   
     91. D(O  11,C  10,C   9,C   4)   -126.4101         0.014212   
     92. D(H  20,O  11,C  10,O  12)   -163.1218         0.031102   
     93. D(H  20,O  11,C  10,C   9)     15.7323         0.031102   
    -----------------------------------------------------------------

Number of atoms                         .... 21
Number of degrees of freedom            .... 93

         *************************************************************
         *                GEOMETRY OPTIMIZATION CYCLE   1            *
         *************************************************************
---------------------------------
CARTESIAN COORDINATES (ANGSTROEM)
---------------------------------
  C      1.130280    0.194430    0.099490
  C      2.611740    0.263490    0.319960
  O      3.192100   -0.219870    1.285220
  O      3.198310    1.002400   -0.701290
  C      4.593220    1.059930   -0.615390
  C      5.161500    2.306840   -0.351320
  C      6.549690    2.427060   -0.267420
  C      7.366330    1.310080   -0.461180
  C      6.798290    0.066030   -0.744720
  C      5.405550   -0.059910   -0.824110
  C      4.815020   -1.368270   -1.164680
  O      5.228920   -2.345050   -0.330200
  O      4.029360   -1.536710   -2.079190
  H      0.751900   -0.751170    0.497300
  H      0.901520    0.219020   -0.969830
  H      0.645850    1.033990    0.602760
  H      4.529880    3.179190   -0.207470
  H      6.997470    3.396150   -0.057770
  H      8.447940    1.414550   -0.406210
  H      7.443190   -0.790490   -0.928930
  H      5.640680   -2.004290    0.489060

----------------------------
CARTESIAN COORDINATES (A.U.)
----------------------------
  NO LB      ZA    FRAG     MASS         X           Y           Z
   0 C     6.0000    0    12.011    2.135920    0.367419    0.188009
   1 C     6.0000    0    12.011    4.935473    0.497924    0.604637
   2 O     8.0000    0    15.999    6.032195   -0.415494    2.428714
   3 O     8.0000    0    15.999    6.043930    1.894261   -1.325246
   4 C     6.0000    0    12.011    8.679928    2.002977   -1.162919
   5 C     6.0000    0    12.011    9.753821    4.359296   -0.663899
   6 C     6.0000    0    12.011   12.377120    4.586479   -0.505351
   7 C     6.0000    0    12.011   13.920346    2.475692   -0.871504
   8 C     6.0000    0    12.011   12.846906    0.124779   -1.407317
   9 C     6.0000    0    12.011   10.215009   -0.113213   -1.557342
  10 C     6.0000    0    12.011    9.099069   -2.585656   -2.200926
  11 O     8.0000    0    15.999    9.881227   -4.431502   -0.623988
  12 O     8.0000    0    15.999    7.614387   -2.903961   -3.929100
  13 H     1.0000    0     1.008    1.420885   -1.419506    0.939761
  14 H     1.0000    0     1.008    1.703626    0.413888   -1.832713
  15 H     1.0000    0     1.008    1.220480    1.953958    1.139051
  16 H     1.0000    0     1.008    8.560233    6.007798   -0.392061
  17 H     1.0000    0     1.008   13.223302    6.417793   -0.109169
  18 H     1.0000    0     1.008   15.964293    2.673112   -0.767626
  19 H     1.0000    0     1.008   14.065591   -1.493810   -1.755423
  20 H     1.0000    0     1.008   10.659340   -3.787559    0.924189

--------------------------------
INTERNAL COORDINATES (ANGSTROEM)
--------------------------------
 C      0   0   0     0.000000000000     0.00000000     0.00000000
 C      1   0   0     1.499366544945     0.00000000     0.00000000
 O      2   1   0     1.225635136083   124.43717809     0.00000000
 O      2   1   3     1.390325111440   109.47078752   182.54610618
 C      4   2   1     1.398736007615   113.42131316   183.19491144
 C      5   4   2     1.395514124400   117.03124764   246.41544752
 C      6   5   4     1.395909572465   119.55722319   180.61951264
 C      7   6   5     1.397171481100   120.27002195     0.71325432
 C      8   7   6     1.396683491597   120.16729635     0.21493515
 C      5   4   2     1.399101745014   122.47544088    68.45517231
 C     10   5   4     1.475303187619   120.78788536     0.71137297
 O     11  10   5     1.349729324272   112.10622187   233.58987440
 O     11  10   5     1.217358701986   123.67335046    52.45122986
 H      1   2   3     1.093427446381   109.16273330   326.46221953
 H      1   2   3     1.093792058894   110.44835586   208.32196963
 H      1   2   3     1.092160295653   109.57806859    87.10754015
 H      6   5   4     1.086568529546   120.37728327     0.87207908
 H      7   6   5     1.087931743723   119.84199441   180.24714235
 H      8   7   6     1.088033029784   119.81997430   179.25070290
 H      9   8   7     1.087867567538   119.64151486   177.83645639
 H     12  11  10     0.978187417012   113.25284926    15.73230759

---------------------------
INTERNAL COORDINATES (A.U.)
---------------------------
 C      0   0   0     0.000000000000     0.00000000     0.00000000
 C      1   0   0     2.833392144310     0.00000000     0.00000000
 O      2   1   0     2.316114747307   124.43717809     0.00000000
 O      2   1   3     2.627333697735   109.47078752   182.54610618
 C      4   2   1     2.643227988048   113.42131316   183.19491144
 C      5   4   2     2.637139511135   117.03124764   246.41544752
 C      6   5   4     2.637886799678   119.55722319   180.61951264
 C      7   6   5     2.640271461405   120.27002195     0.71325432
 C      8   7   6     2.639349294888   120.16729635     0.21493515
 C      5   4   2     2.643919131567   122.47544088    68.45517231
 C     10   5   4     2.787918989102   120.78788536     0.71137297
 O     11  10   5     2.550618777797   112.10622187   233.58987440
 O     11  10   5     2.300474553499   123.67335046    52.45122986
 H      1   2   3     2.066278420974   109.16273330   326.46221953
 H      1   2   3     2.066967438768   110.44835586   208.32196963
 H      1   2   3     2.063883853126   109.57806859    87.10754015
 H      6   5   4     2.053316946580   120.37728327     0.87207908
 H      7   6   5     2.055893048036   119.84199441   180.24714235
 H      8   7   6     2.056084450952   119.81997430   179.25070290
 H      9   8   7     2.055771772621   119.64151486   177.83645639
 H     12  11  10     1.848506325800   113.25284926    15.73230759

---------------------
BASIS SET INFORMATION
---------------------
There are 3 groups of distinct atoms

 Group   1 Type C   : 7s4p1d contracted to 3s2p1d pattern {511/31/1}
 Group   2 Type O   : 7s4p1d contracted to 3s2p1d pattern {511/31/1}
 Group   3 Type H   : 4s1p contracted to 2s1p pattern {31/1}

Atom   0C    basis set group =>   1
Atom   1C    basis set group =>   1
Atom   2O    basis set group =>   2
Atom   3O    basis set group =>   2
Atom   4C    basis set group =>   1
Atom   5C    basis set group =>   1
Atom   6C    basis set group =>   1
Atom   7C    basis set group =>   1
Atom   8C    basis set group =>   1
Atom   9C    basis set group =>   1
Atom  10C    basis set group =>   1
Atom  11O    basis set group =>   2
Atom  12O    basis set group =>   2
Atom  13H    basis set group =>   3
Atom  14H    basis set group =>   3
Atom  15H    basis set group =>   3
Atom  16H    basis set group =>   3
Atom  17H    basis set group =>   3
Atom  18H    basis set group =>   3
Atom  19H    basis set group =>   3
Atom  20H    basis set group =>   3
------------------------------------------------------------------------------
                           ORCA GTO INTEGRAL CALCULATION
------------------------------------------------------------------------------
------------------------------------------------------------------------------
                   ___                                                        
                  /   \      - P O W E R E D   B Y -                         
                 /     \                                                     
                 |  |  |   _    _      __       _____    __    __             
                 |  |  |  | |  | |    /  \     |  _  \  |  |  /  |          
                  \  \/   | |  | |   /    \    | | | |  |  | /  /          
                 / \  \   | |__| |  /  /\  \   | |_| |  |  |/  /          
                |  |  |   |  __  | /  /__\  \  |    /   |      \           
                |  |  |   | |  | | |   __   |  |    \   |  |\   \          
                \     /   | |  | | |  |  |  |  | |\  \  |  | \   \       
                 \___/    |_|  |_| |__|  |__|  |_| \__\ |__|  \__/        
                                                                              
                      - O R C A' S   B I G   F R I E N D -                    
                                      &                                       
                       - I N T E G R A L  F E E D E R -                       
                                                                              
 v1 FN, 2020, v2 2021                                                         
------------------------------------------------------------------------------


Reading SHARK input file aspirin.SHARKINP.tmp ... ok
----------------------
SHARK INTEGRAL PACKAGE
----------------------

Number of atoms                             ...     21
Number of basis functions                   ...    222
Number of shells                            ...    102
Maximum angular momentum                    ...      2
Integral batch strategy                     ... SHARK/LIBINT Hybrid
RI-J (if used) integral strategy            ... SPLIT-RIJ (Revised 2003 algorithm where possible)
Printlevel                                  ...      1
Contraction scheme used                     ... SEGMENTED contraction
Coulomb Range Separation                    ... NOT USED
Exchange Range Separation                   ... NOT USED
Finite Nucleus Model                        ... NOT USED
Auxiliary Coulomb fitting basis             ... NOT available
Auxiliary J/K fitting basis                 ... NOT available
Auxiliary Correlation fitting basis         ... NOT available
Auxiliary 'external' fitting basis          ... NOT available
Integral threshold                          ...     2.500000e-11
Primitive cut-off                           ...     2.500000e-12
Primitive pair pre-selection threshold      ...     2.500000e-12

Calculating pre-screening integrals         ... done (  0.0 sec) Dimension = 102
Organizing shell pair data                  ... done (  0.0 sec)
Shell pair information
Total number of shell pairs                 ...      5253
Shell pairs after pre-screening             ...      4619
Total number of primitive shell pairs       ...     19499
Primitive shell pairs kept                  ...     11700
          la=0 lb=0:   1350 shell pairs
          la=1 lb=0:   1660 shell pairs
          la=1 lb=1:    539 shell pairs
          la=2 lb=0:    603 shell pairs
          la=2 lb=1:    387 shell pairs
          la=2 lb=2:     80 shell pairs

Calculating one electron integrals          ... done (  0.0 sec)
Calculating Nuclear repulsion               ... done (  0.0 sec) ENN=    787.683978245537 Eh

SHARK setup successfully completed in   0.1 seconds

Maximum memory used throughout the entire GTOINT-calculation: 33.7 MB
-------------------------------------------------------------------------------
                                 ORCA SCF
-------------------------------------------------------------------------------

------------
SCF SETTINGS
------------
Hamiltonian:
 Ab initio Hamiltonian  Method          .... Hartree-Fock(GTOs)


General Settings:
 Integral files         IntName         .... aspirin
 Hartree-Fock type      HFTyp           .... RHF
 Total Charge           Charge          ....    0
 Multiplicity           Mult            ....    1
 Number of Electrons    NEL             ....   94
 Basis Dimension        Dim             ....  222
 Nuclear Repulsion      ENuc            ....    787.6839782455 Eh

Convergence Acceleration:
 DIIS                   CNVDIIS         .... on
   Start iteration      DIISMaxIt       ....    12
   Startup error        DIISStart       ....  0.200000
   # of expansion vecs  DIISMaxEq       ....     5
   Bias factor          DIISBfac        ....   1.050
   Max. coefficient     DIISMaxC        ....  10.000
 Trust-Rad. Augm. Hess. CNVTRAH         .... auto
   Auto Start mean grad. ratio tolernc. ....  1.125000
   Auto Start start iteration           ....    20
   Auto Start num. interpolation iter.  ....    10
   Max. Number of Micro iterations      ....    16
   Max. Number of Macro iterations      .... Maxiter - #DIIS iter
   Number of Davidson start vectors     ....     2
   Converg. threshold I  (grad. norm)   ....   1.000e-05
   Converg. threshold II (energy diff.) ....   1.000e-08
   Grad. Scal. Fac. for Micro threshold ....   0.100
   Minimum threshold for Micro iter.    ....   0.010
   NR start threshold (gradient norm)   ....   0.001
   Initial trust radius                 ....   0.400
   Minimum AH scaling param. (alpha)    ....   1.000
   Maximum AH scaling param. (alpha)    .... 1000.000
   Orbital update algorithm             .... Taylor
   White noise on init. David. guess    .... on
   Maximum white noise                  ....   0.010
   Quad. conv. algorithm                .... NR
 SOSCF                  CNVSOSCF        .... on
   Start iteration      SOSCFMaxIt      ....   150
   Startup grad/error   SOSCFStart      ....  0.003300
 Level Shifting         CNVShift        .... on
   Level shift para.    LevelShift      ....    0.2500
   Turn off err/grad.   ShiftErr        ....    0.0010
 Zerner damping         CNVZerner       .... off
 Static damping         CNVDamp         .... on
   Fraction old density DampFac         ....    0.7000
   Max. Damping (<1)    DampMax         ....    0.9800
   Min. Damping (>=0)   DampMin         ....    0.0000
   Turn off err/grad.   DampErr         ....    0.1000
 Fernandez-Rico         CNVRico         .... off

SCF Procedure:
 Maximum # iterations   MaxIter         ....   125
 SCF integral mode      SCFMode         .... Direct
   Integral package                     .... SHARK and LIBINT hybrid scheme
 Reset frequency        DirectResetFreq ....    20
 Integral Threshold     Thresh          ....  2.500e-11 Eh
 Primitive CutOff       TCut            ....  2.500e-12 Eh

Convergence Tolerance:
 Convergence Check Mode ConvCheckMode   .... Total+1el-Energy
 Convergence forced     ConvForced      .... 0
 Energy Change          TolE            ....  1.000e-08 Eh
 1-El. energy change                    ....  1.000e-05 Eh
 Orbital Gradient       TolG            ....  1.000e-05
 Orbital Rotation angle TolX            ....  1.000e-05
 DIIS Error             TolErr          ....  5.000e-07


Diagonalization of the overlap matrix:
Smallest eigenvalue                        ... 2.461e-04
Time for diagonalization                   ...    0.004 sec
Threshold for overlap eigenvalues          ... 1.000e-08
Number of eigenvalues below threshold      ... 0
Time for construction of square roots      ...    0.001 sec
Total time needed                          ...    0.005 sec

Time for model grid setup =    0.144 sec

------------------------------
INITIAL GUESS: MODEL POTENTIAL
------------------------------
Loading Hartree-Fock densities                     ... done
Calculating cut-offs                               ... done
Initializing the effective Hamiltonian             ... done
Setting up the integral package (SHARK)            ... done
Starting the Coulomb interaction                   ... done (   0.1 sec)
Reading the grid                                   ... done
Mapping shells                                     ... done
Starting the XC term evaluation                    ... done (   0.1 sec)
Transforming the Hamiltonian                       ... done (   0.0 sec)
Diagonalizing the Hamiltonian                      ... done (   0.0 sec)
Back transforming the eigenvectors                 ... done (   0.0 sec)
Now organizing SCF variables                       ... done
                      ------------------
                      INITIAL GUESS DONE (   0.4 sec)
                      ------------------
--------------
SCF ITERATIONS
--------------
ITER       Energy         Delta-E        Max-DP      RMS-DP      [F,P]     Damp
               ***  Starting incremental Fock matrix formation  ***
  0   -644.0024683888   0.000000000000 0.06319429  0.00237864  0.2457561 0.7000
  1   -644.1589470875  -0.156478698741 0.04520630  0.00184468  0.1463477 0.7000
                               ***Turning on DIIS***
  2   -644.2513740621  -0.092426974574 0.10266776  0.00425390  0.0799592 0.0000
  3   -643.7335349223   0.517839139834 0.03502503  0.00096342  0.0555357 0.0000
  4   -644.5075498609  -0.774014938580 0.00986693  0.00034320  0.0090758 0.0000
  5   -644.4649649933   0.042584867592 0.00462102  0.00015882  0.0055171 0.0000
                      *** Initiating the SOSCF procedure ***
                           *** Shutting down DIIS ***
                      *** Re-Reading the Fockian *** 
                      *** Removing any level shift *** 
ITER      Energy       Delta-E        Grad      Rot      Max-DP    RMS-DP
  6   -644.44118147   0.0237835242  0.002042  0.002042  0.002802  0.000083
               *** Restarting incremental Fock matrix formation ***
  7   -644.44662662  -0.0054451526  0.000712  0.001102  0.001456  0.000040
  8   -644.44664510  -0.0000184776  0.000480  0.001683  0.001628  0.000046
  9   -644.44665230  -0.0000072035  0.000170  0.000194  0.000307  0.000007
 10   -644.44665293  -0.0000006264  0.000040  0.000037  0.000099  0.000003
 11   -644.44665303  -0.0000000992  0.000017  0.000048  0.000048  0.000001
 12   -644.44665304  -0.0000000136  0.000012  0.000032  0.000030  0.000001
 13   -644.44665304  -0.0000000024  0.000004  0.000009  0.000007  0.000000
                 **** Energy Check signals convergence ****
              ***Rediagonalizing the Fockian in SOSCF/NRSCF***

               *****************************************************
               *                     SUCCESS                       *
               *           SCF CONVERGED AFTER  14 CYCLES          *
               *****************************************************


----------------
TOTAL SCF ENERGY
----------------

Total Energy       :         -644.44665304 Eh          -17536.28496 eV

Components:
Nuclear Repulsion  :          787.68397825 Eh           21433.97073 eV
Electronic Energy  :        -1432.13063129 Eh          -38970.25569 eV
One Electron Energy:        -2444.17235026 Eh          -66509.31092 eV
Two Electron Energy:         1012.04171897 Eh           27539.05523 eV

Virial components:
Potential Energy   :        -1286.01712113 Eh          -34994.30494 eV
Kinetic Energy     :          641.57046809 Eh           17458.01999 eV
Virial Ratio       :            2.00448304


---------------
SCF CONVERGENCE
---------------

  Last Energy change         ...    5.9094e-10  Tolerance :   1.0000e-08
  Last MAX-Density change    ...    4.0148e-06  Tolerance :   1.0000e-07
  Last RMS-Density change    ...    1.3547e-07  Tolerance :   5.0000e-09
  Last Orbital Gradient      ...    1.3399e-06  Tolerance :   1.0000e-05
  Last Orbital Rotation      ...    5.3116e-06  Tolerance :   1.0000e-05

             **** THE GBW FILE WAS UPDATED (aspirin.gbw) ****
             **** DENSITY aspirin.scfp WAS UPDATED ****
             **** ENERGY FILE WAS UPDATED (aspirin.en.tmp) ****
             **** THE GBW FILE WAS UPDATED (aspirin.gbw) ****
             **** DENSITY aspirin.scfp WAS UPDATED ****
----------------
ORBITAL ENERGIES
----------------

  NO   OCC          E(Eh)            E(eV) 
   0   2.0000     -20.628824      -561.3388 
   1   2.0000     -20.606635      -560.7350 
   2   2.0000     -20.564871      -559.5986 
   3   2.0000     -20.546113      -559.0881 
   4   2.0000     -11.411548      -310.5240 
   5   2.0000     -11.399315      -310.1911 
   6   2.0000     -11.334368      -308.4238 
   7   2.0000     -11.276906      -306.8602 
   8   2.0000     -11.273221      -306.7599 
   9   2.0000     -11.270234      -306.6787 
  10   2.0000     -11.265394      -306.5470 
  11   2.0000     -11.264768      -306.5299 
  12   2.0000     -11.253622      -306.2266 
  13   2.0000      -1.463037       -39.8113 
  14   2.0000      -1.439419       -39.1686 
  15   2.0000      -1.363959       -37.1152 
  16   2.0000      -1.345304       -36.6076 
  17   2.0000      -1.173450       -31.9312 
  18   2.0000      -1.055761       -28.7287 
  19   2.0000      -1.049479       -28.5578 
  20   2.0000      -1.004773       -27.3413 
  21   2.0000      -0.900581       -24.5061 
  22   2.0000      -0.863595       -23.4996 
  23   2.0000      -0.836763       -22.7695 
  24   2.0000      -0.802647       -21.8411 
  25   2.0000      -0.752725       -20.4827 
  26   2.0000      -0.714886       -19.4530 
  27   2.0000      -0.705491       -19.1974 
  28   2.0000      -0.693841       -18.8804 
  29   2.0000      -0.669784       -18.2257 
  30   2.0000      -0.660647       -17.9771 
  31   2.0000      -0.638026       -17.3616 
  32   2.0000      -0.634376       -17.2622 
  33   2.0000      -0.626041       -17.0355 
  34   2.0000      -0.598248       -16.2791 
  35   2.0000      -0.579632       -15.7726 
  36   2.0000      -0.573347       -15.6016 
  37   2.0000      -0.569720       -15.5029 
  38   2.0000      -0.548492       -14.9252 
  39   2.0000      -0.535737       -14.5781 
  40   2.0000      -0.525203       -14.2915 
  41   2.0000      -0.493269       -13.4225 
  42   2.0000      -0.478327       -13.0159 
  43   2.0000      -0.470135       -12.7930 
  44   2.0000      -0.454176       -12.3588 
  45   2.0000      -0.368799       -10.0355 
  46   2.0000      -0.358969        -9.7680 
  47   0.0000       0.087335         2.3765 
  48   0.0000       0.103941         2.8284 
  49   0.0000       0.152968         4.1625 
  50   0.0000       0.170540         4.6406 
  51   0.0000       0.181304         4.9335 
  52   0.0000       0.185089         5.0365 
  53   0.0000       0.197101         5.3634 
  54   0.0000       0.217226         5.9110 
  55   0.0000       0.238004         6.4764 
  56   0.0000       0.253478         6.8975 
  57   0.0000       0.255867         6.9625 
  58   0.0000       0.267148         7.2695 
  59   0.0000       0.319157         8.6847 
  60   0.0000       0.336384         9.1535 
  61   0.0000       0.355121         9.6633 
  62   0.0000       0.385829        10.4989 
  63   0.0000       0.398305        10.8384 
  64   0.0000       0.433375        11.7927 
  65   0.0000       0.446533        12.1508 
  66   0.0000       0.467085        12.7100 
  67   0.0000       0.471264        12.8237 
  68   0.0000       0.472304        12.8520 
  69   0.0000       0.506750        13.7894 
  70   0.0000       0.533660        14.5216 
  71   0.0000       0.561547        15.2805 
  72   0.0000       0.574709        15.6386 
  73   0.0000       0.590043        16.0559 
  74   0.0000       0.619392        16.8545 
  75   0.0000       0.636878        17.3303 
  76   0.0000       0.639897        17.4125 
  77   0.0000       0.647679        17.6242 
  78   0.0000       0.653936        17.7945 
  79   0.0000       0.662706        18.0332 
  80   0.0000       0.677593        18.4382 
  81   0.0000       0.688132        18.7250 
  82   0.0000       0.707436        19.2503 
  83   0.0000       0.719148        19.5690 
  84   0.0000       0.731035        19.8925 
  85   0.0000       0.761880        20.7318 
  86   0.0000       0.787399        21.4262 
  87   0.0000       0.789533        21.4843 
  88   0.0000       0.810843        22.0642 
  89   0.0000       0.820624        22.3303 
  90   0.0000       0.829588        22.5742 
  91   0.0000       0.854508        23.2524 
  92   0.0000       0.858083        23.3496 
  93   0.0000       0.862396        23.4670 
  94   0.0000       0.867659        23.6102 
  95   0.0000       0.870248        23.6806 
  96   0.0000       0.879344        23.9282 
  97   0.0000       0.893606        24.3162 
  98   0.0000       0.900527        24.5046 
  99   0.0000       0.912739        24.8369 
 100   0.0000       0.933267        25.3955 
 101   0.0000       0.937558        25.5122 
 102   0.0000       0.954785        25.9810 
 103   0.0000       0.958621        26.0854 
 104   0.0000       0.985600        26.8195 
 105   0.0000       0.995661        27.0933 
 106   0.0000       1.031272        28.0623 
 107   0.0000       1.047084        28.4926 
 108   0.0000       1.067517        29.0486 
 109   0.0000       1.097225        29.8570 
 110   0.0000       1.114722        30.3331 
 111   0.0000       1.145135        31.1607 
 112   0.0000       1.162177        31.6245 
 113   0.0000       1.199798        32.6482 
 114   0.0000       1.230202        33.4755 
 115   0.0000       1.252224        34.0748 
 116   0.0000       1.304291        35.4916 
 117   0.0000       1.312121        35.7046 
 118   0.0000       1.320080        35.9212 
 119   0.0000       1.361925        37.0599 
 120   0.0000       1.377554        37.4852 
 121   0.0000       1.397132        38.0179 
 122   0.0000       1.419407        38.6240 
 123   0.0000       1.426498        38.8170 
 124   0.0000       1.440962        39.2106 
 125   0.0000       1.473939        40.1079 
 126   0.0000       1.491429        40.5838 
 127   0.0000       1.503306        40.9070 
 128   0.0000       1.508708        41.0540 
 129   0.0000       1.527174        41.5565 
 130   0.0000       1.541231        41.9390 
 131   0.0000       1.569515        42.7087 
 132   0.0000       1.600392        43.5489 
 133   0.0000       1.626278        44.2533 
 134   0.0000       1.672202        45.5029 
 135   0.0000       1.696551        46.1655 
 136   0.0000       1.720922        46.8287 
 137   0.0000       1.746880        47.5350 
 138   0.0000       1.769983        48.1637 
 139   0.0000       1.809222        49.2314 
 140   0.0000       1.831221        49.8300 
 141   0.0000       1.856634        50.5216 
 142   0.0000       1.883891        51.2633 
 143   0.0000       1.907482        51.9052 
 144   0.0000       1.929978        52.5174 
 145   0.0000       1.940485        52.8033 
 146   0.0000       1.966881        53.5215 
 147   0.0000       1.970181        53.6114 
 148   0.0000       1.990064        54.1524 
 149   0.0000       2.001679        54.4685 
 150   0.0000       2.016316        54.8668 
 151   0.0000       2.026457        55.1427 
 152   0.0000       2.029719        55.2315 
 153   0.0000       2.040087        55.5136 
 154   0.0000       2.056033        55.9475 
 155   0.0000       2.060148        56.0595 
 156   0.0000       2.071867        56.3784 
 157   0.0000       2.099414        57.1279 
 158   0.0000       2.111696        57.4622 
 159   0.0000       2.150825        58.5269 
 160   0.0000       2.178194        59.2717 
 161   0.0000       2.199132        59.8414 
 162   0.0000       2.205965        60.0274 
 163   0.0000       2.223061        60.4926 
 164   0.0000       2.254984        61.3612 
 165   0.0000       2.277542        61.9751 
 166   0.0000       2.285475        62.1909 
 167   0.0000       2.306451        62.7617 
 168   0.0000       2.331496        63.4432 
 169   0.0000       2.346716        63.8574 
 170   0.0000       2.404660        65.4341 
 171   0.0000       2.414850        65.7114 
 172   0.0000       2.433199        66.2107 
 173   0.0000       2.441327        66.4319 
 174   0.0000       2.477885        67.4267 
 175   0.0000       2.509443        68.2854 
 176   0.0000       2.561528        69.7027 
 177   0.0000       2.583468        70.2997 
 178   0.0000       2.591679        70.5232 
 179   0.0000       2.601427        70.7884 
 180   0.0000       2.617094        71.2147 
 181   0.0000       2.641406        71.8763 
 182   0.0000       2.690882        73.2226 
 183   0.0000       2.703861        73.5758 
 184   0.0000       2.783536        75.7439 
 185   0.0000       2.797695        76.1291 
 186   0.0000       2.807943        76.4080 
 187   0.0000       2.845701        77.4355 
 188   0.0000       2.894920        78.7748 
 189   0.0000       2.927997        79.6749 
 190   0.0000       2.946063        80.1665 
 191   0.0000       2.989386        81.3453 
 192   0.0000       3.004506        81.7568 
 193   0.0000       3.018932        82.1493 
 194   0.0000       3.044977        82.8580 
 195   0.0000       3.056292        83.1659 
 196   0.0000       3.072810        83.6154 
 197   0.0000       3.093851        84.1880 
 198   0.0000       3.149510        85.7025 
 199   0.0000       3.181245        86.5661 
 200   0.0000       3.203545        87.1729 
 201   0.0000       3.207882        87.2909 
 202   0.0000       3.220455        87.6330 
 203   0.0000       3.257869        88.6511 
 204   0.0000       3.295797        89.6832 
 205   0.0000       3.312065        90.1259 
 206   0.0000       3.356837        91.3442 
 207   0.0000       3.393823        92.3506 
 208   0.0000       3.429983        93.3346 
 209   0.0000       3.461588        94.1946 
 210   0.0000       3.500733        95.2598 
 211   0.0000       3.552756        96.6754 
 212   0.0000       3.585242        97.5594 
 213   0.0000       3.652531        99.3904 
 214   0.0000       3.703322       100.7725 
 215   0.0000       3.762909       102.3940 
 216   0.0000       3.857034       104.9552 
 217   0.0000       3.929721       106.9332 
 218   0.0000       4.022295       109.4522 
 219   0.0000       4.050151       110.2102 
 220   0.0000       4.077561       110.9561 
 221   0.0000       4.187687       113.9528 

                    ********************************
                    * MULLIKEN POPULATION ANALYSIS *
                    ********************************

-----------------------
MULLIKEN ATOMIC CHARGES
-----------------------
   0 C :   -0.019220
   1 C :    0.443017
   2 O :   -0.416515
   3 O :   -0.528207
   4 C :    0.322984
   5 C :   -0.043444
   6 C :   -0.007664
   7 C :   -0.037841
   8 C :   -0.004105
   9 C :   -0.263941
  10 C :    0.593459
  11 O :   -0.360123
  12 O :   -0.377779
  13 H :    0.077004
  14 H :    0.080672
  15 H :    0.077906
  16 H :    0.051728
  17 H :    0.057562
  18 H :    0.054506
  19 H :    0.058997
  20 H :    0.241003
Sum of atomic charges:   -0.0000000

--------------------------------
MULLIKEN REDUCED ORBITAL CHARGES
--------------------------------
  0 C s       :     3.020118  s :     3.020118
      pz      :     1.046769  p :     2.965749
      px      :     0.875093
      py      :     1.043888
      dz2     :     0.009718  d :     0.033353
      dxz     :     0.002978
      dyz     :     0.005387
      dx2y2   :     0.011133
      dxy     :     0.004138
  1 C s       :     3.060182  s :     3.060182
      pz      :     0.708503  p :     2.350354
      px      :     0.971351
      py      :     0.670500
      dz2     :     0.039147  d :     0.146448
      dxz     :     0.035859
      dyz     :     0.028119
      dx2y2   :     0.024309
      dxy     :     0.019015
  2 O s       :     3.804631  s :     3.804631
      pz      :     1.401419  p :     4.591413
      px      :     1.713387
      py      :     1.476608
      dz2     :     0.006254  d :     0.020470
      dxz     :     0.005086
      dyz     :     0.005027
      dx2y2   :     0.001648
      dxy     :     0.002456
  3 O s       :     3.801909  s :     3.801909
      pz      :     1.621541  p :     4.707830
      px      :     1.359201
      py      :     1.727088
      dz2     :     0.004061  d :     0.018468
      dxz     :     0.003528
      dyz     :     0.003895
      dx2y2   :     0.005160
      dxy     :     0.001825
  4 C s       :     2.993586  s :     2.993586
      pz      :     0.964874  p :     2.602795
      px      :     0.651177
      py      :     0.986744
      dz2     :     0.007103  d :     0.080635
      dxz     :     0.012829
      dyz     :     0.008420
      dx2y2   :     0.028135
      dxy     :     0.024148
  5 C s       :     3.192908  s :     3.192908
      pz      :     0.987478  p :     2.808421
      px      :     0.899572
      py      :     0.921371
      dz2     :     0.003907  d :     0.042115
      dxz     :     0.005976
      dyz     :     0.005089
      dx2y2   :     0.013030
      dxy     :     0.014112
  6 C s       :     3.120758  s :     3.120758
      pz      :     0.951849  p :     2.842734
      px      :     0.943237
      py      :     0.947648
      dz2     :     0.003759  d :     0.044171
      dxz     :     0.007304
      dyz     :     0.004304
      dx2y2   :     0.014449
      dxy     :     0.014354
  7 C s       :     3.130524  s :     3.130524
      pz      :     0.989651  p :     2.864059
      px      :     0.934561
      py      :     0.939847
      dz2     :     0.003948  d :     0.043258
      dxz     :     0.003739
      dyz     :     0.007052
      dx2y2   :     0.014541
      dxy     :     0.013977
  8 C s       :     3.162756  s :     3.162756
      pz      :     0.965218  p :     2.797581
      px      :     0.914534
      py      :     0.917829
      dz2     :     0.003980  d :     0.043767
      dxz     :     0.007087
      dyz     :     0.004980
      dx2y2   :     0.014101
      dxy     :     0.013620
  9 C s       :     3.056946  s :     3.056946
      pz      :     1.071075  p :     3.159244
      px      :     1.030181
      py      :     1.057988
      dz2     :     0.004662  d :     0.047752
      dxz     :     0.007686
      dyz     :     0.005366
      dx2y2   :     0.013732
      dxy     :     0.016305
 10 C s       :     2.984967  s :     2.984967
      pz      :     0.752946  p :     2.265439
      px      :     0.731798
      py      :     0.780695
      dz2     :     0.035824  d :     0.156135
      dxz     :     0.022589
      dyz     :     0.043891
      dx2y2   :     0.022254
      dxy     :     0.031577
 11 O s       :     3.715208  s :     3.715208
      pz      :     1.314836  p :     4.630107
      px      :     1.710499
      py      :     1.604773
      dz2     :     0.001097  d :     0.014807
      dxz     :     0.001292
      dyz     :     0.006515
      dx2y2   :     0.002600
      dxy     :     0.003303
 12 O s       :     3.788007  s :     3.788007
      pz      :     1.395839  p :     4.568734
      px      :     1.374411
      py      :     1.798484
      dz2     :     0.006194  d :     0.021038
      dxz     :     0.007127
      dyz     :     0.002672
      dx2y2   :     0.003257
      dxy     :     0.001787
 13 H s       :     0.896831  s :     0.896831
      pz      :     0.005868  p :     0.026165
      px      :     0.004975
      py      :     0.015322
 14 H s       :     0.893145  s :     0.893145
      pz      :     0.018647  p :     0.026183
      px      :     0.003696
      py      :     0.003840
 15 H s       :     0.895025  s :     0.895025
      pz      :     0.007374  p :     0.027069
      px      :     0.007030
      py      :     0.012666
 16 H s       :     0.922303  s :     0.922303
      pz      :     0.004209  p :     0.025970
      px      :     0.008211
      py      :     0.013550
 17 H s       :     0.916916  s :     0.916916
      pz      :     0.004332  p :     0.025522
      px      :     0.005273
      py      :     0.015917
 18 H s       :     0.919846  s :     0.919846
      pz      :     0.003978  p :     0.025648
      px      :     0.019084
      py      :     0.002587
 19 H s       :     0.915053  s :     0.915053
      pz      :     0.004424  p :     0.025950
      px      :     0.008698
      py      :     0.012828
 20 H s       :     0.688412  s :     0.688412
      pz      :     0.035866  p :     0.070585
      px      :     0.020525
      py      :     0.014194


                     *******************************
                     * LOEWDIN POPULATION ANALYSIS *
                     *******************************

----------------------
LOEWDIN ATOMIC CHARGES
----------------------
   0 C :   -0.044396
   1 C :    0.245953
   2 O :   -0.270204
   3 O :   -0.162992
   4 C :    0.112315
   5 C :   -0.023792
   6 C :    0.001576
   7 C :   -0.026020
   8 C :   -0.002823
   9 C :   -0.097951
  10 C :    0.212263
  11 O :   -0.097526
  12 O :   -0.245628
  13 H :    0.045505
  14 H :    0.043932
  15 H :    0.048816
  16 H :    0.038635
  17 H :    0.034714
  18 H :    0.032781
  19 H :    0.036401
  20 H :    0.118440

-------------------------------
LOEWDIN REDUCED ORBITAL CHARGES
-------------------------------
  0 C s       :     2.835760  s :     2.835760
      pz      :     1.069917  p :     3.130632
      px      :     0.992508
      py      :     1.068208
      dz2     :     0.022142  d :     0.078004
      dxz     :     0.008079
      dyz     :     0.011304
      dx2y2   :     0.025759
      dxy     :     0.010719
  1 C s       :     2.856626  s :     2.856626
      pz      :     0.863346  p :     2.607278
      px      :     1.011101
      py      :     0.732831
      dz2     :     0.076695  d :     0.290143
      dxz     :     0.072275
      dyz     :     0.059653
      dx2y2   :     0.046578
      dxy     :     0.034942
  2 O s       :     3.560567  s :     3.560567
      pz      :     1.475903  p :     4.678406
      px      :     1.720133
      py      :     1.482371
      dz2     :     0.008498  d :     0.031230
      dxz     :     0.009118
      dyz     :     0.007917
      dx2y2   :     0.002210
      dxy     :     0.003487
  3 O s       :     3.458812  s :     3.458812
      pz      :     1.620855  p :     4.673188
      px      :     1.357870
      py      :     1.694463
      dz2     :     0.005850  d :     0.030992
      dxz     :     0.006794
      dyz     :     0.005812
      dx2y2   :     0.008313
      dxy     :     0.004223
  4 C s       :     2.831620  s :     2.831620
      pz      :     0.961628  p :     2.884293
      px      :     0.837241
      py      :     1.085423
      dz2     :     0.014098  d :     0.171772
      dxz     :     0.025058
      dyz     :     0.015985
      dx2y2   :     0.061892
      dxy     :     0.054739
  5 C s       :     2.855223  s :     2.855223
      pz      :     0.979450  p :     3.073199
      px      :     1.057295
      py      :     1.036454
      dz2     :     0.007653  d :     0.095371
      dxz     :     0.011407
      dyz     :     0.009338
      dx2y2   :     0.031575
      dxy     :     0.035398
  6 C s       :     2.854356  s :     2.854356
      pz      :     0.940200  p :     3.045960
      px      :     1.059988
      py      :     1.045771
      dz2     :     0.007003  d :     0.098109
      dxz     :     0.014213
      dyz     :     0.007500
      dx2y2   :     0.034612
      dxy     :     0.034781
  7 C s       :     2.852216  s :     2.852216
      pz      :     0.976631  p :     3.076568
      px      :     1.043396
      py      :     1.056541
      dz2     :     0.007658  d :     0.097236
      dxz     :     0.006063
      dyz     :     0.014163
      dx2y2   :     0.036198
      dxy     :     0.033155
  8 C s       :     2.850383  s :     2.850383
      pz      :     0.958731  p :     3.053274
      px      :     1.039804
      py      :     1.054739
      dz2     :     0.007444  d :     0.099165
      dxz     :     0.014149
      dyz     :     0.009049
      dx2y2   :     0.033420
      dxy     :     0.035104
  9 C s       :     2.851681  s :     2.851681
      pz      :     1.017159  p :     3.136659
      px      :     1.075793
      py      :     1.043707
      dz2     :     0.009553  d :     0.109612
      dxz     :     0.015104
      dyz     :     0.010881
      dx2y2   :     0.034287
      dxy     :     0.039787
 10 C s       :     2.833435  s :     2.833435
      pz      :     0.872095  p :     2.640790
      px      :     0.828143
      py      :     0.940553
      dz2     :     0.065851  d :     0.313511
      dxz     :     0.047825
      dyz     :     0.090452
      dx2y2   :     0.043946
      dxy     :     0.065437
 11 O s       :     3.419384  s :     3.419384
      pz      :     1.352306  p :     4.652018
      px      :     1.677315
      py      :     1.622397
      dz2     :     0.003109  d :     0.026124
      dxz     :     0.003548
      dyz     :     0.011449
      dx2y2   :     0.003749
      dxy     :     0.004269
 12 O s       :     3.553777  s :     3.553777
      pz      :     1.458869  p :     4.660032
      px      :     1.423996
      py      :     1.777167
      dz2     :     0.007633  d :     0.031819
      dxz     :     0.013459
      dyz     :     0.003652
      dx2y2   :     0.004487
      dxy     :     0.002589
 13 H s       :     0.887425  s :     0.887425
      pz      :     0.016348  p :     0.067069
      px      :     0.014777
      py      :     0.035945
 14 H s       :     0.888242  s :     0.888242
      pz      :     0.043363  p :     0.067826
      px      :     0.012361
      py      :     0.012102
 15 H s       :     0.882940  s :     0.882940
      pz      :     0.019101  p :     0.068244
      px      :     0.018760
      py      :     0.030383
 16 H s       :     0.891799  s :     0.891799
      pz      :     0.014392  p :     0.069567
      px      :     0.021934
      py      :     0.033240
 17 H s       :     0.897024  s :     0.897024
      pz      :     0.014196  p :     0.068262
      px      :     0.016038
      py      :     0.038027
 18 H s       :     0.898520  s :     0.898520
      pz      :     0.013851  p :     0.068699
      px      :     0.044330
      py      :     0.010518
 19 H s       :     0.894061  s :     0.894061
      pz      :     0.014500  p :     0.069538
      px      :     0.022937
      py      :     0.032102
 20 H s       :     0.704525  s :     0.704525
      pz      :     0.080579  p :     0.177035
      px      :     0.054423
      py      :     0.042033


                      *****************************
                      * MAYER POPULATION ANALYSIS *
                      *****************************

  NA   - Mulliken gross atomic population
  ZA   - Total nuclear charge
  QA   - Mulliken gross atomic charge
  VA   - Mayer's total valence
  BVA  - Mayer's bonded valence
  FA   - Mayer's free valence

  ATOM       NA         ZA         QA         VA         BVA        FA
  0 C      6.0192     6.0000    -0.0192     3.8797     3.8797    -0.0000
  1 C      5.5570     6.0000     0.4430     3.9753     3.9753     0.0000
  2 O      8.4165     8.0000    -0.4165     2.0383     2.0383     0.0000
  3 O      8.5282     8.0000    -0.5282     1.8942     1.8942    -0.0000
  4 C      5.6770     6.0000     0.3230     3.8865     3.8865    -0.0000
  5 C      6.0434     6.0000    -0.0434     3.9275     3.9275    -0.0000
  6 C      6.0077     6.0000    -0.0077     3.8412     3.8412    -0.0000
  7 C      6.0378     6.0000    -0.0378     3.8813     3.8813    -0.0000
  8 C      6.0041     6.0000    -0.0041     3.9198     3.9198     0.0000
  9 C      6.2639     6.0000    -0.2639     3.7581     3.7581     0.0000
 10 C      5.4065     6.0000     0.5935     4.1029     4.1029    -0.0000
 11 O      8.3601     8.0000    -0.3601     2.0616     2.0616    -0.0000
 12 O      8.3778     8.0000    -0.3778     2.0910     2.0910    -0.0000
 13 H      0.9230     1.0000     0.0770     0.9949     0.9949    -0.0000
 14 H      0.9193     1.0000     0.0807     0.9912     0.9912    -0.0000
 15 H      0.9221     1.0000     0.0779     0.9905     0.9905    -0.0000
 16 H      0.9483     1.0000     0.0517     0.9962     0.9962    -0.0000
 17 H      0.9424     1.0000     0.0576     0.9856     0.9856    -0.0000
 18 H      0.9455     1.0000     0.0545     0.9862     0.9862    -0.0000
 19 H      0.9410     1.0000     0.0590     0.9993     0.9993    -0.0000
 20 H      0.7590     1.0000     0.2410     0.9774     0.9774    -0.0000

  Mayer bond orders larger than 0.100000
B(  0-C ,  1-C ) :   0.9933 B(  0-C , 13-H ) :   0.9789 B(  0-C , 14-H ) :   0.9757 
B(  0-C , 15-H ) :   0.9633 B(  1-C ,  2-O ) :   1.9585 B(  1-C ,  3-O ) :   0.9878 
B(  3-O ,  4-C ) :   0.8776 B(  4-C ,  5-C ) :   1.4552 B(  4-C ,  9-C ) :   1.4280 
B(  5-C ,  6-C ) :   1.3937 B(  5-C , 16-H ) :   1.0037 B(  6-C ,  7-C ) :   1.4165 
B(  6-C , 17-H ) :   0.9960 B(  7-C ,  8-C ) :   1.4251 B(  7-C , 18-H ) :   0.9999 
B(  8-C ,  9-C ) :   1.4018 B(  8-C , 19-H ) :   0.9996 B(  9-C , 10-C ) :   0.9134 
B( 10-C , 11-O ) :   1.1098 B( 10-C , 12-O ) :   2.0475 B( 11-O , 20-H ) :   0.9351 


-------
TIMINGS
-------

Total SCF time: 0 days 0 hours 0 min 38 sec 

Total time                  ....      38.141 sec
Sum of individual times     ....      38.010 sec  ( 99.7%)

Fock matrix formation       ....      37.546 sec  ( 98.4%)
Diagonalization             ....       0.036 sec  (  0.1%)
Density matrix formation    ....       0.005 sec  (  0.0%)
Population analysis         ....       0.006 sec  (  0.0%)
Initial guess               ....       0.232 sec  (  0.6%)
Orbital Transformation      ....       0.000 sec  (  0.0%)
Orbital Orthonormalization  ....       0.000 sec  (  0.0%)
DIIS solution               ....       0.014 sec  (  0.0%)
SOSCF solution              ....       0.027 sec  (  0.1%)

Maximum memory used throughout the entire SCF-calculation: 258.0 MB

-------------------------   --------------------
FINAL SINGLE POINT ENERGY      -644.446653043654
-------------------------   --------------------

------------------------------------------------------------------------------
                         ORCA SCF GRADIENT CALCULATION
------------------------------------------------------------------------------

Gradient of the Hartree-Fock SCF energy:
Hartree-Fock type                ... RHF
Number of operators              ...    1
Number of atoms                  ...   21
Basis set dimensions             ...  222
Integral neglect threshold       ... 2.5e-11
Integral primitive cutoff        ... 2.5e-12
SHARK Integral package           ... ON

Nuc. rep. gradient       (SHARK) ... done (  0.0 sec)
HCore & Overlap gradient (SHARK) ... done (  0.1 sec)
Two-Electron gradient    (SHARK) ... done ( 13.2 sec)

------------------
CARTESIAN GRADIENT
------------------

   1   C   :    0.002155928    0.011111282    0.007031848
   2   C   :   -0.022624962    0.009982157   -0.037085989
   3   O   :    0.030511714   -0.038452468    0.078997555
   4   O   :   -0.024612653    0.035534500   -0.049460202
   5   C   :    0.003565938   -0.018352794    0.009600655
   6   C   :   -0.005075459    0.006558632   -0.001185211
   7   C   :    0.000854820    0.006995555    0.002531424
   8   C   :    0.002636077   -0.000436682    0.001141203
   9   C   :    0.003130847   -0.013673928   -0.003671740
  10   C   :   -0.003555913   -0.019909789    0.002717046
  11   C   :    0.040039256    0.027330853    0.026815236
  12   O   :    0.001597847   -0.013185429    0.000380361
  13   O   :   -0.051185814   -0.000071561   -0.060843948
  14   H   :   -0.001633263   -0.005855231   -0.003489783
  15   H   :   -0.001900111   -0.004138409   -0.004730677
  16   H   :   -0.001001098    0.001246666    0.000511538
  17   H   :   -0.000098927    0.005627494    0.000519077
  18   H   :    0.002317767    0.004111696    0.000810357
  19   H   :    0.004737891    0.000954531    0.000350160
  20   H   :    0.004366981   -0.002417575   -0.001411701
  21   H   :    0.015773135    0.007040501    0.030472791

Difference to translation invariance:
           :   -0.0000000000    0.0000000000   -0.0000000000

Difference to rotation invariance:
           :    0.0000002377    0.0000002936    0.0000000687

Norm of the cartesian gradient     ...    0.1653103674
RMS gradient                       ...    0.0208271486
MAX gradient                       ...    0.0789975551

-------
TIMINGS
-------

Total SCF gradient time            ...       13.420 sec

One electron gradient       ....       0.139 sec  (  1.0%)
Two electron gradient       ....      13.248 sec  ( 98.7%)

Maximum memory used throughout the entire SCFGRAD-calculation: 50.7 MB
------------------------------------------------------------------------------
                         ORCA GEOMETRY RELAXATION STEP
------------------------------------------------------------------------------

Reading the OPT-File                    .... done
Getting information on internals        .... done
Copying old internal coords+grads       .... done
Making the new internal coordinates     .... (new redundants).... done
Validating the new internal coordinates .... (new redundants).... done
Calculating the B-matrix                .... done
Calculating the G,G- and P matrices     .... done
Transforming gradient to internals      .... done
Projecting the internal gradient        .... done
Number of atoms                         ....  21
Number of internal coordinates          ....  93
Current Energy                          ....  -644.446653044 Eh
Current gradient norm                   ....     0.165310367 Eh/bohr
Maximum allowed component of the step   ....  0.300
Current trust radius                    ....  0.300
Evaluating the initial hessian          ....  (Almloef) done
Projecting the Hessian                  .... done
Forming the augmented Hessian           .... done
Diagonalizing the augmented Hessian     .... done
Last element of RFO vector              ....  0.967335898
Lowest eigenvalues of augmented Hessian:
 -0.031110077  0.012940714  0.014296523  0.015634847  0.020196500
Length of the computed step             ....  0.262057934
The final length of the internal step   ....  0.262057934
Converting the step to cartesian space:
 Initial RMS(Int)=    0.0271741418
Transforming coordinates:
 Iter   0:  RMS(Cart)=    0.0721830643 RMS(Int)=    0.6512036034
 Iter   1:  RMS(Cart)=    0.0031117823 RMS(Int)=    0.0017773318
 Iter   2:  RMS(Cart)=    0.0002351236 RMS(Int)=    0.0000955953
 Iter   3:  RMS(Cart)=    0.0000184506 RMS(Int)=    0.0000098356
 Iter   4:  RMS(Cart)=    0.0000011533 RMS(Int)=    0.0000007165
 Iter   5:  RMS(Cart)=    0.0000000901 RMS(Int)=    0.0000000587
done
Storing new coordinates                 .... done

                                .--------------------.
          ----------------------|Geometry convergence|-------------------------
          Item                value                   Tolerance       Converged
          ---------------------------------------------------------------------
          RMS gradient        0.0157702212            0.0001000000      NO
          MAX gradient        0.0918277683            0.0003000000      NO
          RMS step            0.0271741418            0.0020000000      NO
          MAX step            0.0870685815            0.0040000000      NO
          ........................................................
          Max(Bonds)      0.0461      Max(Angles)    3.80
          Max(Dihed)        3.71      Max(Improp)    0.00
          ---------------------------------------------------------------------

The optimization has not yet converged - more geometry cycles are needed


    ---------------------------------------------------------------------------
                         Redundant Internal Coordinates
                            (Angstroem and degrees)

        Definition                    Value    dE/dq     Step     New-Value
    ----------------------------------------------------------------------------
     1. B(C   1,C   0)                1.4994  0.002341 -0.0028    1.4966   
     2. B(O   2,C   1)                1.2256  0.091828 -0.0461    1.1796   
     3. B(O   3,C   1)                1.3903  0.041839 -0.0375    1.3528   
     4. B(C   4,O   3)                1.3987  0.019170 -0.0177    1.3810   
     5. B(C   5,C   4)                1.3955  0.013667 -0.0113    1.3842   
     6. B(C   6,C   5)                1.3959  0.009314 -0.0077    1.3882   
     7. B(C   7,C   6)                1.3972  0.011755 -0.0097    1.3875   
     8. B(C   8,C   7)                1.3967  0.010593 -0.0087    1.3880   
     9. B(C   9,C   8)                1.4007  0.008216 -0.0069    1.3938   
    10. B(C   9,C   4)                1.3991  0.010535 -0.0088    1.3903   
    11. B(C  10,C   9)                1.4753 -0.020484  0.0222    1.4975   
    12. B(O  11,C  10)                1.3497  0.028849 -0.0225    1.3273   
    13. B(O  12,C  10)                1.2174  0.078752 -0.0384    1.1790   
    14. B(H  13,C   0)                1.0934  0.004359 -0.0060    1.0875   
    15. B(H  14,C   0)                1.0938  0.004929 -0.0068    1.0870   
    16. B(H  15,C   0)                1.0922  0.001638 -0.0022    1.0899   
    17. B(H  16,C   5)                1.0866  0.004644 -0.0062    1.0804   
    18. B(H  17,C   6)                1.0879  0.004773 -0.0064    1.0815   
    19. B(H  18,C   7)                1.0880  0.004819 -0.0065    1.0816   
    20. B(H  19,C   8)                1.0879  0.004731 -0.0064    1.0815   
    21. B(H  20,O  11)                0.9782  0.034614 -0.0354    0.9428   
    22. A(H  14,C   0,H  15)          109.90  0.000606   -0.34    109.57   
    23. A(C   1,C   0,H  15)          109.58  0.001612   -0.50    109.08   
    24. A(H  13,C   0,H  15)          110.10  0.001240   -0.53    109.57   
    25. A(C   1,C   0,H  13)          109.16  0.000505    0.01    109.18   
    26. A(C   1,C   0,H  14)          110.45  0.000433    0.05    110.50   
    27. A(H  13,C   0,H  14)          107.62 -0.004480    1.33    108.95   
    28. A(O   2,C   1,O   3)          126.04  0.023785   -2.85    123.19   
    29. A(C   0,C   1,O   2)          124.44 -0.009536    1.08    125.52   
    30. A(C   0,C   1,O   3)          109.47 -0.014328    1.84    111.31   
    31. A(C   1,O   3,C   4)          113.42 -0.029267    3.80    117.22   
    32. A(O   3,C   4,C   5)          117.03 -0.002682    0.35    117.38   
    33. A(C   5,C   4,C   9)          120.46 -0.002862    0.36    120.82   
    34. A(O   3,C   4,C   9)          122.48  0.005527   -0.69    121.78   
    35. A(C   4,C   5,H  16)          120.38  0.003771   -0.55    119.83   
    36. A(C   4,C   5,C   6)          119.56 -0.001030    0.13    119.68   
    37. A(C   6,C   5,H  16)          120.07 -0.002744    0.42    120.49   
    38. A(C   7,C   6,H  17)          119.89 -0.000677    0.10    119.99   
    39. A(C   5,C   6,C   7)          120.27  0.000558   -0.08    120.19   
    40. A(C   5,C   6,H  17)          119.84  0.000117   -0.02    119.82   
    41. A(C   6,C   7,H  18)          119.82 -0.001703    0.23    120.05   
    42. A(C   8,C   7,H  18)          120.01 -0.000653    0.08    120.08   
    43. A(C   6,C   7,C   8)          120.17  0.002347   -0.30    119.87   
    44. A(C   7,C   8,H  19)          119.64  0.000460   -0.03    119.61   
    45. A(C   7,C   8,C   9)          119.74 -0.004881    0.65    120.39   
    46. A(C   9,C   8,H  19)          120.60  0.004414   -0.62    119.98   
    47. A(C   8,C   9,C  10)          119.40 -0.002648    0.34    119.73   
    48. A(C   4,C   9,C  10)          120.79 -0.003210    0.41    121.20   
    49. A(C   4,C   9,C   8)          119.79  0.005841   -0.73    119.06   
    50. A(C   9,C  10,O  11)          112.11 -0.021135    2.63    114.74   
    51. A(O  11,C  10,O  12)          124.21  0.023048   -2.70    121.51   
    52. A(C   9,C  10,O  12)          123.67 -0.001980    0.14    123.81   
    53. A(C  10,O  11,H  20)          113.25  0.009892   -1.42    111.84   
    54. D(O   3,C   1,C   0,H  13)    149.01 -0.002323    0.42    149.43   
    55. D(O   2,C   1,C   0,H  15)     87.11 -0.000699    1.27     88.38   
    56. D(O   2,C   1,C   0,H  13)    -33.54 -0.003523    2.22    -31.32   
    57. D(O   2,C   1,C   0,H  14)   -151.68  0.001383    0.56   -151.12   
    58. D(O   3,C   1,C   0,H  14)     30.87  0.002583   -1.24     29.63   
    59. D(O   3,C   1,C   0,H  15)    -90.35  0.000501   -0.52    -90.87   
    60. D(C   4,O   3,C   1,C   0)   -176.81  0.001328   -1.67   -178.47   
    61. D(C   4,O   3,C   1,O   2)      5.79  0.003633   -3.62      2.17   
    62. D(C   9,C   4,O   3,C   1)     68.46  0.002485   -2.67     65.79   
    63. D(C   5,C   4,O   3,C   1)   -113.58  0.001883   -2.11   -115.70   
    64. D(H  16,C   5,C   4,C   9)    178.88 -0.000662    0.72    179.60   
    65. D(C   6,C   5,C   4,C   9)     -1.38 -0.001296    1.34     -0.03   
    66. D(C   6,C   5,C   4,O   3)   -179.38 -0.000888    0.82   -178.56   
    67. D(H  16,C   5,C   4,O   3)      0.87 -0.000254    0.20      1.08   
    68. D(C   7,C   6,C   5,C   4)      0.71  0.000820   -0.82     -0.11   
    69. D(H  17,C   6,C   5,H  16)     -0.00 -0.000125    0.13      0.13   
    70. D(H  17,C   6,C   5,C   4)   -179.75  0.000490   -0.48   -180.24   
    71. D(C   7,C   6,C   5,H  16)   -179.54  0.000205   -0.20   -179.74   
    72. D(H  18,C   7,C   6,H  17)     -0.28 -0.000065    0.07     -0.21   
    73. D(H  18,C   7,C   6,C   5)    179.25 -0.000392    0.41    179.66   
    74. D(C   8,C   7,C   6,H  17)   -179.32  0.000595   -0.59   -179.91   
    75. D(C   8,C   7,C   6,C   5)      0.21  0.000269   -0.26     -0.04   
    76. D(H  19,C   8,C   7,H  18)     -1.20 -0.000347    0.37     -0.83   
    77. D(H  19,C   8,C   7,C   6)    177.84 -0.001019    1.04    178.87   
    78. D(C   9,C   8,C   7,H  18)   -179.52 -0.000138    0.14   -179.38   
    79. D(C   9,C   8,C   7,C   6)     -0.49 -0.000810    0.81      0.32   
    80. D(C  10,C   9,C   4,C   5)   -177.18  0.001518   -1.53   -178.71   
    81. D(C  10,C   9,C   4,O   3)      0.71  0.000907   -0.96     -0.25   
    82. D(C   8,C   9,C   4,C   5)      1.11  0.000806   -0.80      0.31   
    83. D(C   4,C   9,C   8,C   7)     -0.17  0.000250   -0.28     -0.45   
    84. D(C   8,C   9,C   4,O   3)    179.00  0.000195   -0.23    178.77   
    85. D(C  10,C   9,C   8,H  19)     -0.16 -0.000184    0.20      0.04   
    86. D(C  10,C   9,C   8,C   7)    178.14 -0.000464    0.44    178.58   
    87. D(C   4,C   9,C   8,H  19)   -178.48  0.000530   -0.52   -179.00   
    88. D(O  12,C  10,C   9,C   8)   -125.85 -0.000320    0.23   -125.62   
    89. D(O  12,C  10,C   9,C   4)     52.45 -0.000885    0.94     53.39   
    90. D(O  11,C  10,C   9,C   8)     55.29  0.003080   -3.71     51.58   
    91. D(O  11,C  10,C   9,C   4)   -126.41  0.002515   -3.00   -129.41   
    92. D(H  20,O  11,C  10,O  12)   -163.12  0.001516   -1.67   -164.79   
    93. D(H  20,O  11,C  10,C   9)     15.73 -0.002246    2.34     18.07   
    ----------------------------------------------------------------------------

         *************************************************************
         *                GEOMETRY OPTIMIZATION CYCLE   2            *
         *************************************************************
---------------------------------
CARTESIAN COORDINATES (ANGSTROEM)
---------------------------------
  C      1.120276    0.224475    0.077870
  C      2.601118    0.243029    0.293738
  O      3.172561   -0.300603    1.170824
  O      3.225764    0.986966   -0.647776
  C      4.603248    1.061440   -0.582615
  C      5.162556    2.302306   -0.330532
  C      6.543420    2.437404   -0.284830
  C      7.359545    1.334023   -0.488573
  C      6.792797    0.091811   -0.737894
  C      5.407577   -0.053180   -0.791598
  C      4.812281   -1.393797   -1.093172
  O      5.265010   -2.384773   -0.335105
  O      4.040799   -1.587549   -1.963404
  H      0.719141   -0.721223    0.434690
  H      0.888273    0.330004   -0.978866
  H      0.668854    1.045696    0.634430
  H      4.522578    3.159018   -0.176754
  H      6.982942    3.406562   -0.091850
  H      8.435176    1.442860   -0.457932
  H      7.432828   -0.761959   -0.914275
  H      5.681996   -2.065113    0.447705

----------------------------
CARTESIAN COORDINATES (A.U.)
----------------------------
  NO LB      ZA    FRAG     MASS         X           Y           Z
   0 C     6.0000    0    12.011    2.117014    0.424197    0.147153
   1 C     6.0000    0    12.011    4.915401    0.459259    0.555084
   2 O     8.0000    0    15.999    5.995271   -0.568057    2.212537
   3 O     8.0000    0    15.999    6.095811    1.865096   -1.224119
   4 C     6.0000    0    12.011    8.698878    2.005831   -1.100982
   5 C     6.0000    0    12.011    9.755817    4.350728   -0.624615
   6 C     6.0000    0    12.011   12.365271    4.606027   -0.538251
   7 C     6.0000    0    12.011   13.907525    2.520939   -0.923270
   8 C     6.0000    0    12.011   12.836526    0.173497   -1.394417
   9 C     6.0000    0    12.011   10.218839   -0.100496   -1.495904
  10 C     6.0000    0    12.011    9.093894   -2.633894   -2.065796
  11 O     8.0000    0    15.999    9.949428   -4.506569   -0.633257
  12 O     8.0000    0    15.999    7.636004   -3.000032   -3.710296
  13 H     1.0000    0     1.008    1.358980   -1.362913    0.821446
  14 H     1.0000    0     1.008    1.678592    0.623617   -1.849789
  15 H     1.0000    0     1.008    1.263951    1.976079    1.198898
  16 H     1.0000    0     1.008    8.546434    5.969680   -0.334016
  17 H     1.0000    0     1.008   13.195848    6.437469   -0.173572
  18 H     1.0000    0     1.008   15.940173    2.726611   -0.865366
  19 H     1.0000    0     1.008   14.046008   -1.439893   -1.727729
  20 H     1.0000    0     1.008   10.737417   -3.902498    0.846040

--------------------------------
INTERNAL COORDINATES (ANGSTROEM)
[...]
     14      -0.010750   0.000047   0.000023   0.000033   0.000142   0.000103
     15       0.028958   0.000008   0.000014   0.000178   0.004642   0.012170
     16       0.010812   0.000003  -0.000052  -0.000130  -0.008102  -0.021316
     17       0.001552  -0.000005  -0.000008  -0.000036  -0.001869  -0.004900
     18      -0.017134  -0.000007  -0.000002   0.000086   0.013090   0.027371
     19       0.003867  -0.000014  -0.000025   0.000258   0.025591   0.059696
     20       0.001551  -0.000008  -0.000004   0.000047   0.004813   0.011378
     21       0.006851  -0.000005  -0.000015  -0.000139  -0.042549  -0.020168
     22      -0.009486  -0.000003   0.000005  -0.000024  -0.002208  -0.006804
     23      -0.003580  -0.000000   0.000002   0.000001   0.001214  -0.000547
     24      -0.017076   0.000000  -0.000008   0.000208   0.041058  -0.026650
     25       0.002021   0.000006  -0.000004  -0.000271  -0.052887   0.037584
     26       0.001720   0.000001  -0.000002  -0.000066  -0.013195   0.009235
     27       0.081182   0.000004   0.000003   0.000040  -0.002920   0.002058
     28       0.024856   0.000005   0.000010  -0.000016  -0.000524  -0.000070
     29       0.024981   0.000003   0.000003   0.000000  -0.000084   0.000012
     30      -0.587105   0.000010   0.000146  -0.000015   0.000742  -0.000367
     31      -0.094922  -0.000001   0.000002   0.000077  -0.000604   0.000609
     32      -0.409161   0.000016   0.000052  -0.000030   0.000118  -0.000023
     33       0.033798  -0.000001  -0.000020   0.000002  -0.000440   0.000272
     34       0.012812  -0.000001   0.000020  -0.000035   0.000054  -0.000099
     35       0.031472  -0.000002  -0.000003   0.000012   0.000027  -0.000051
     36       0.367879   0.000008  -0.000112   0.000019  -0.000077  -0.000043
     37       0.058805  -0.000003  -0.000003  -0.000034   0.000160  -0.000151
     38       0.256912  -0.000016  -0.000003   0.000006   0.000011  -0.000039
     39      -0.062363   0.236716   0.055572  -0.443505   0.002426   0.000644
     40       0.028984   0.223396   0.059702  -0.413531   0.002198   0.000611
     41      -0.048076  -0.340973  -0.076336   0.631045  -0.003321  -0.000914
     42       0.042619   0.070959  -0.082893   0.030731  -0.000128  -0.000016
     43      -0.022071   0.319473  -0.329620   0.132648  -0.000703  -0.000190
     44       0.021123   0.570182  -0.609485   0.221695  -0.001151  -0.000303
     45       0.027431   0.194087   0.236552   0.134292  -0.000728  -0.000302
     46      -0.006889  -0.548599  -0.654061  -0.370762   0.001904   0.000726
     47       0.043321   0.065346   0.089950   0.041414  -0.000207  -0.000079
     48      -0.042109  -0.000274  -0.000467  -0.001508  -0.067251  -0.171089
     49      -0.033826   0.000356   0.000556   0.001817   0.091044   0.232411
     50      -0.008819   0.000100   0.000148   0.000418   0.021332   0.054495
     51       0.011320   0.000012   0.000068  -0.001298  -0.141564  -0.312697
     52      -0.010055   0.000086   0.000175  -0.002899  -0.304456  -0.678659
     53      -0.001938   0.000032   0.000028  -0.000553  -0.057877  -0.129139
     54       0.009345   0.000027   0.000118   0.001880   0.500322   0.235899
     55       0.005444   0.000000  -0.000004   0.000160   0.043671   0.026665
     56      -0.000641   0.000001  -0.000003  -0.000046  -0.011014  -0.004288
     57       0.012847   0.000062   0.000104  -0.002197  -0.453596   0.302488
     58       0.035333  -0.000081  -0.000099   0.003081   0.617515  -0.415211
     59       0.010173  -0.000023  -0.000043   0.000764   0.154164  -0.103391
     60       0.117945   0.000023  -0.000025   0.000076   0.000786  -0.000359
     61      -0.317643  -0.000023  -0.000019   0.000110   0.001474  -0.000690
     62       0.042080   0.000005  -0.000186  -0.000023  -0.001598   0.001397
                 60         61         62    
      0      -0.000020   0.000023  -0.000002
      1      -0.000104  -0.000090  -0.000007
      2       0.000134   0.000041  -0.000007
      3      -0.000152  -0.000109   0.000036
      4      -0.000111  -0.000012  -0.000006
      5       0.000069  -0.000119  -0.000120
      6       0.000007  -0.000004   0.000021
      7       0.000041   0.000010   0.000003
      8      -0.000043   0.000020   0.000067
      9      -0.000136  -0.000469  -0.000034
     10      -0.000043  -0.000178   0.000006
     11      -0.000011   0.000069   0.000025
     12       0.001131   0.002534   0.000117
     13       0.002061   0.003544  -0.000106
     14       0.000400   0.000663  -0.000088
     15       0.024445   0.044501   0.000074
     16      -0.035071  -0.056353   0.000027
     17      -0.008208  -0.013372   0.000027
     18       0.004879  -0.020543  -0.000017
     19       0.023591  -0.039455   0.000078
     20       0.004688  -0.007399   0.000001
     21       0.069198  -0.028941  -0.000024
     22       0.006487  -0.000841  -0.000016
     23      -0.001450   0.000984   0.000021
     24       0.013797  -0.004696  -0.000020
     25      -0.024274   0.009008   0.000233
     26      -0.005797   0.002129  -0.000024
     27      -0.001723   0.000197  -0.000216
     28       0.000011   0.000044   0.000364
     29       0.000004   0.000023  -0.000140
     30       0.000278   0.000129   0.000824
     31      -0.000325   0.000307   0.000918
     32       0.000002   0.000088   0.000893
     33      -0.000140   0.000030   0.040218
     34       0.000064  -0.000100   0.013784
     35       0.000028  -0.000022   0.046306
     36       0.000011  -0.000124  -0.000886
     37       0.000095  -0.000080   0.000228
     38       0.000034  -0.000070  -0.000618
     39       0.000740  -0.000017  -0.000041
     40       0.000698   0.000110  -0.000022
     41      -0.001054  -0.000178   0.000034
     42      -0.000029   0.000083   0.000179
     43      -0.000218   0.000021  -0.000007
     44      -0.000350   0.000107   0.000119
     45      -0.000352  -0.000372  -0.000011
     46       0.000815   0.000888   0.000075
     47      -0.000101  -0.000104   0.000018
     48      -0.290414  -0.478841  -0.000026
     49       0.388529   0.632633   0.000264
     50       0.091173   0.148663   0.000147
     51      -0.102193   0.200688  -0.000008
     52      -0.235829   0.430457  -0.000041
     53      -0.045084   0.081733   0.000015
     54      -0.762923   0.309206   0.000413
     55      -0.069628   0.026045   0.000212
     56       0.016615  -0.007175  -0.000086
     57      -0.173344   0.060427   0.000197
     58       0.243475  -0.085805   0.000146
     59       0.060349  -0.021187  -0.001402
     60       0.000052   0.000105  -0.633969
     61       0.000150   0.000280  -0.240875
     62      -0.000635   0.000297  -0.732191


-----------
IR SPECTRUM
-----------

 Mode   freq       eps      Int      T**2         TX        TY        TZ
       cm**-1   L/(mol*cm) km/mol    a.u.
----------------------------------------------------------------------------
  6:     52.93   0.002489   12.58  0.014676  (-0.070985  0.039242  0.089983)
  7:     77.57   0.000725    3.66  0.002917  (-0.010987  0.046458  0.025257)
  8:     88.35   0.000787    3.98  0.002780  ( 0.027351  0.031009 -0.032717)
  9:    122.87   0.000222    1.12  0.000563  ( 0.002277  0.020233 -0.012193)
 10:    130.08   0.000018    0.09  0.000044  ( 0.000400 -0.000194 -0.006643)
 11:    149.95   0.000236    1.19  0.000492  ( 0.002743  0.021772  0.003188)
 12:    225.08   0.001538    7.77  0.002132  (-0.037050  0.015924  0.022489)
 13:    293.07   0.001765    8.92  0.001880  ( 0.027479  0.027083 -0.019774)
 14:    327.64   0.000191    0.97  0.000182  ( 0.001790 -0.011069  0.007500)
 15:    383.28   0.001440    7.28  0.001173  ( 0.026544 -0.020483 -0.006968)
 16:    439.76   0.001653    8.36  0.001173  (-0.016796 -0.029246  0.005991)
 17:    492.26   0.001749    8.84  0.001109  (-0.021339  0.005358  0.024998)
 18:    501.42   0.018834   95.18  0.011721  ( 0.080793  0.024197 -0.067884)
 19:    555.43   0.001811    9.15  0.001017  ( 0.023582 -0.009978  0.019019)
 20:    596.13   0.003024   15.28  0.001583  ( 0.037145  0.013592 -0.004277)
 21:    624.28   0.001232    6.22  0.000616  ( 0.018958 -0.013528 -0.008561)
 22:    654.92   0.002462   12.44  0.001173  (-0.007685 -0.028274 -0.017739)
 23:    703.51   0.001551    7.84  0.000688  (-0.001345 -0.024498 -0.009276)
 24:    739.80   0.003884   19.63  0.001638  ( 0.037816  0.012923 -0.006419)
 25:    795.46   0.008328   42.09  0.003267  (-0.017761 -0.011820  0.053029)
 26:    830.33   0.003291   16.63  0.001237  ( 0.002089  0.001861  0.035055)
 27:    859.54   0.003445   17.41  0.001251  ( 0.001589 -0.007505  0.034522)
 28:    899.01   0.001502    7.59  0.000521  ( 0.021565  0.003331  0.006730)
 29:    925.22   0.004563   23.06  0.001539  (-0.022849  0.014020 -0.028642)
 30:    990.65   0.000713    3.60  0.000225  (-0.013628 -0.006201 -0.000604)
 31:   1040.55   0.005215   26.35  0.001564  ( 0.017907  0.017132 -0.030819)
 32:   1092.49   0.000829    4.19  0.000237  ( 0.000437 -0.007291  0.013544)
 33:   1114.01   0.005875   29.69  0.001646  ( 0.034891  0.016476 -0.012525)
 34:   1125.57   0.000060    0.31  0.000017  (-0.000926 -0.001693  0.003608)
 35:   1135.99   0.001106    5.59  0.000304  ( 0.007773  0.015533 -0.001497)
 36:   1162.77   0.002521   12.74  0.000677  (-0.000698 -0.020870 -0.015508)
 37:   1188.17   0.007265   36.71  0.001908  (-0.035936  0.024587 -0.003496)
 38:   1211.55   0.001957    9.89  0.000504  (-0.018602  0.007900  0.009781)
 39:   1238.19   0.000458    2.31  0.000115  ( 0.000436 -0.010411  0.002608)
 40:   1306.87   0.006510   32.90  0.001555  (-0.020492  0.027915 -0.018851)
 41:   1329.38   0.012419   62.76  0.002915  ( 0.051270 -0.016749 -0.002465)
 42:   1358.98   0.011499   58.11  0.002641  ( 0.046937  0.011459 -0.017497)
 43:   1387.59   0.065777  332.41  0.014793  (-0.104521 -0.034328  0.051864)
 44:   1408.24   0.044992  227.37  0.009970  (-0.093502 -0.018065  0.030021)
 45:   1484.91   0.111178  561.85  0.023365  ( 0.008897 -0.147198  0.040230)
 46:   1528.99   0.041460  209.52  0.008462  (-0.078147 -0.043604  0.021298)
 47:   1566.26   0.002767   13.98  0.000551  (-0.015250  0.008039 -0.015938)
 48:   1575.90   0.002874   14.53  0.000569  (-0.014814  0.011651  0.014627)
 49:   1605.16   0.006394   32.31  0.001243  (-0.033195 -0.001984  0.011714)
 50:   1659.95   0.014865   75.12  0.002794  ( 0.050436 -0.014801 -0.005625)
 51:   1783.13   0.003613   18.26  0.000632  (-0.014095  0.016883  0.012189)
 52:   1817.73   0.008872   44.84  0.001523  ( 0.018551  0.034100 -0.004029)
 53:   2050.74   0.038118  192.63  0.005800  (-0.006153 -0.059732  0.046848)
 54:   2062.88   0.120101  606.94  0.018168  (-0.104475 -0.012890 -0.084186)
 55:   3208.66   0.000324    1.64  0.000032  (-0.004924  0.002417  0.001195)
 56:   3300.21   0.000609    3.08  0.000058  (-0.005243  0.005476  0.000345)
 57:   3338.21   0.001167    5.90  0.000109  ( 0.006212  0.006480 -0.005341)
 58:   3348.05   0.000108    0.54  0.000010  ( 0.000765 -0.003006 -0.000638)
 59:   3358.24   0.000986    4.98  0.000092  ( 0.000665  0.009433  0.001483)
 60:   3373.20   0.001803    9.11  0.000167  ( 0.012901  0.000196 -0.000569)
 61:   3382.16   0.000623    3.15  0.000057  (-0.002572 -0.006975 -0.001494)
 62:   4180.16   0.022220  112.29  0.001659  (-0.025634  0.002116 -0.031579)

* The epsilon (eps) is given for a Dirac delta lineshape.
** The dipole moment derivative (T) already includes vibrational overlap.

The first frequency considered to be a vibration is 6
The total number of vibrations considered is 57


--------------------------
THERMOCHEMISTRY AT 298.15K
--------------------------

Temperature         ... 298.15 K
Pressure            ... 1.00 atm
Total Mass          ... 180.16 AMU

Throughout the following assumptions are being made:
  (1) The electronic state is orbitally nondegenerate
  (2) There are no thermally accessible electronically excited states
  (3) Hindered rotations indicated by low frequency modes are not
      treated as such but are treated as vibrations and this may
      cause some error
  (4) All equations used are the standard statistical mechanics
      equations for an ideal gas
  (5) All vibrations are strictly harmonic

freq.      52.93  E(vib)   ...       0.52 
freq.      77.57  E(vib)   ...       0.49 
freq.      88.35  E(vib)   ...       0.48 
freq.     122.87  E(vib)   ...       0.43 
freq.     130.08  E(vib)   ...       0.43 
freq.     149.95  E(vib)   ...       0.40 
freq.     225.08  E(vib)   ...       0.33 
freq.     293.07  E(vib)   ...       0.27 
freq.     327.64  E(vib)   ...       0.24 
freq.     383.28  E(vib)   ...       0.20 
freq.     439.76  E(vib)   ...       0.17 
freq.     492.26  E(vib)   ...       0.14 
freq.     501.42  E(vib)   ...       0.14 
freq.     555.43  E(vib)   ...       0.12 
freq.     596.13  E(vib)   ...       0.10 
freq.     624.28  E(vib)   ...       0.09 
freq.     654.92  E(vib)   ...       0.08 
freq.     703.51  E(vib)   ...       0.07 
freq.     739.80  E(vib)   ...       0.06 
freq.     795.46  E(vib)   ...       0.05 
freq.     830.33  E(vib)   ...       0.04 
freq.     859.54  E(vib)   ...       0.04 
freq.     899.01  E(vib)   ...       0.03 
freq.     925.22  E(vib)   ...       0.03 
freq.     990.65  E(vib)   ...       0.02 
freq.    1040.55  E(vib)   ...       0.02 
freq.    1092.49  E(vib)   ...       0.02 
freq.    1114.01  E(vib)   ...       0.01 
freq.    1125.57  E(vib)   ...       0.01 
freq.    1135.99  E(vib)   ...       0.01 
freq.    1162.77  E(vib)   ...       0.01 
freq.    1188.17  E(vib)   ...       0.01 
freq.    1211.55  E(vib)   ...       0.01 
freq.    1238.19  E(vib)   ...       0.01 
freq.    1306.87  E(vib)   ...       0.01 
freq.    1329.38  E(vib)   ...       0.01 
freq.    1358.98  E(vib)   ...       0.01 
freq.    1387.59  E(vib)   ...       0.00 
freq.    1408.24  E(vib)   ...       0.00 
freq.    1484.91  E(vib)   ...       0.00 
freq.    1528.99  E(vib)   ...       0.00 
freq.    1566.26  E(vib)   ...       0.00 
freq.    1575.90  E(vib)   ...       0.00 
freq.    1605.16  E(vib)   ...       0.00 
freq.    1659.95  E(vib)   ...       0.00 
freq.    1783.13  E(vib)   ...       0.00 
freq.    1817.73  E(vib)   ...       0.00 
freq.    2050.74  E(vib)   ...       0.00 
freq.    2062.88  E(vib)   ...       0.00 
freq.    3208.66  E(vib)   ...       0.00 
freq.    3300.21  E(vib)   ...       0.00 
freq.    3338.21  E(vib)   ...       0.00 
freq.    3348.05  E(vib)   ...       0.00 
freq.    3358.24  E(vib)   ...       0.00 
freq.    3373.20  E(vib)   ...       0.00 
freq.    3382.16  E(vib)   ...       0.00 
freq.    4180.16  E(vib)   ...       0.00 

------------
INNER ENERGY
------------

The inner energy is: U= E(el) + E(ZPE) + E(vib) + E(rot) + E(trans)
    E(el)   - is the total energy from the electronic structure calculation
              = E(kin-el) + E(nuc-el) + E(el-el) + E(nuc-nuc)
    E(ZPE)  - the the zero temperature vibrational energy from the frequency calculation
    E(vib)  - the the finite temperature correction to E(ZPE) due to population
              of excited vibrational states
    E(rot)  - is the rotational thermal energy
    E(trans)- is the translational thermal energy

Summary of contributions to the inner energy U:
Electronic energy                ...   -644.46737938 Eh
Zero point energy                ...      0.16900228 Eh     106.05 kcal/mol
Thermal vibrational correction   ...      0.00822205 Eh       5.16 kcal/mol
Thermal rotational correction    ...      0.00141627 Eh       0.89 kcal/mol
Thermal translational correction ...      0.00141627 Eh       0.89 kcal/mol
-----------------------------------------------------------------------
Total thermal energy                   -644.28732251 Eh


Summary of corrections to the electronic energy:
(perhaps to be used in another calculation)
Total thermal correction                  0.01105459 Eh       6.94 kcal/mol
Non-thermal (ZPE) correction              0.16900228 Eh     106.05 kcal/mol
-----------------------------------------------------------------------
Total correction                          0.18005687 Eh     112.99 kcal/mol


--------
ENTHALPY
--------

The enthalpy is H = U + kB*T
                kB is Boltzmann's constant
Total free energy                 ...   -644.28732251 Eh 
Thermal Enthalpy correction       ...      0.00094421 Eh       0.59 kcal/mol
-----------------------------------------------------------------------
Total Enthalpy                    ...   -644.28637830 Eh


Note: Only C1 symmetry has been detected, increase convergence thresholds 
      if your molecule has a higher symmetry. Symmetry factor of 1.0 is   
      used for the rotational entropy correction. 
 

Note: Rotational entropy computed according to Herzberg 
Infrared and Raman Spectra, Chapter V,1, Van Nostrand Reinhold, 1945 
Point Group:  C1, Symmetry Number:   1  
Rotational constants in cm-1:     0.039709     0.025184     0.017534 

Vibrational entropy computed according to the QRRHO of S. Grimme
Chem.Eur.J. 2012 18 9955


-------
ENTROPY
-------

The entropy contributions are T*S = T*(S(el)+S(vib)+S(rot)+S(trans))
     S(el)   - electronic entropy
     S(vib)  - vibrational entropy
     S(rot)  - rotational entropy
     S(trans)- translational entropy
The entropies will be listed as multiplied by the temperature to get
units of energy

Electronic entropy                ...      0.00000000 Eh      0.00 kcal/mol
Vibrational entropy               ...      0.01441246 Eh      9.04 kcal/mol
Rotational entropy                ...      0.01468084 Eh      9.21 kcal/mol
Translational entropy             ...      0.01970496 Eh     12.37 kcal/mol
-----------------------------------------------------------------------
Final entropy term                ...      0.04879825 Eh     30.62 kcal/mol

In case the symmetry of your molecule has not been determined correctly
or in case you have a reason to use a different symmetry number we print 
out the resulting rotational entropy values for sn=1,12 :
 --------------------------------------------------------
|  sn= 1 | S(rot)=       0.01468084 Eh      9.21 kcal/mol|
|  sn= 2 | S(rot)=       0.01402638 Eh      8.80 kcal/mol|
|  sn= 3 | S(rot)=       0.01364355 Eh      8.56 kcal/mol|
|  sn= 4 | S(rot)=       0.01337192 Eh      8.39 kcal/mol|
|  sn= 5 | S(rot)=       0.01316124 Eh      8.26 kcal/mol|
|  sn= 6 | S(rot)=       0.01298909 Eh      8.15 kcal/mol|
|  sn= 7 | S(rot)=       0.01284354 Eh      8.06 kcal/mol|
|  sn= 8 | S(rot)=       0.01271747 Eh      7.98 kcal/mol|
|  sn= 9 | S(rot)=       0.01260626 Eh      7.91 kcal/mol|
|  sn=10 | S(rot)=       0.01250678 Eh      7.85 kcal/mol|
|  sn=11 | S(rot)=       0.01241679 Eh      7.79 kcal/mol|
|  sn=12 | S(rot)=       0.01233463 Eh      7.74 kcal/mol|
 --------------------------------------------------------


-------------------
GIBBS FREE ENERGY
-------------------

The Gibbs free energy is G = H - T*S

Total enthalpy                    ...   -644.28637830 Eh 
Total entropy correction          ...     -0.04879825 Eh    -30.62 kcal/mol
-----------------------------------------------------------------------
Final Gibbs free energy         ...   -644.33517655 Eh

For completeness - the Gibbs free energy minus the electronic energy
G-E(el)                           ...      0.13220283 Eh     82.96 kcal/mol


Timings for individual modules:

Sum of individual times         ...     1237.768 sec (=  20.629 min)
GTO integral calculation        ...        1.913 sec (=   0.032 min)   0.2 %
SCF iterations                  ...      402.507 sec (=   6.708 min)  32.5 %
SCF Gradient evaluation         ...      215.940 sec (=   3.599 min)  17.4 %
Geometry relaxation             ...        1.216 sec (=   0.020 min)   0.1 %
Analytical frequency calculation...      616.191 sec (=  10.270 min)  49.8 %
                             ****ORCA TERMINATED NORMALLY****
TOTAL RUN TIME: 0 days 0 hours 20 minutes 39 seconds 250 msec
