
                                 *****************
                                 * O   R   C   A *
                                 *****************

                                            #,                                       
                                            ###                                      
                                            ####                                     
                                            #####                                    
                                            ######                                   
                                           ########,                                 
                                     ,,################,,,,,                         
                               ,,#################################,,                 
                          ,,##########################################,,             
                       ,#########################################, ''#####,          
                    ,#############################################,,   '####,        
                  ,##################################################,,,,####,       
                ,###########''''           ''''###############################       
              ,#####''   ,,,,##########,,,,          '''####'''          '####       
            ,##' ,,,,###########################,,,                        '##       
           ' ,,###''''                  '''############,,,                           
         ,,##''                                '''############,,,,        ,,,,,,###''
      ,#''                                            '''#######################'''  
     '                                                          ''''####''''         
             ,#######,   #######,   ,#######,      ##                                
            ,#'     '#,  ##    ##  ,#'     '#,    #''#        ######   ,####,        
            ##       ##  ##   ,#'  ##            #'  '#       #        #'  '#        
            ##       ##  #######   ##           ,######,      #####,   #    #        
            '#,     ,#'  ##    ##  '#,     ,#' ,#      #,         ##   #,  ,#        
             '#######'   ##     ##  '#######'  #'      '#     #####' # '####'        



                  #######################################################
                  #                        -***-                        #
                  #          Department of theory and spectroscopy      #
                  #    Directorship and core code : Frank Neese         #
                  #        Max Planck Institute fuer Kohlenforschung    #
                  #                Kaiser Wilhelm Platz 1               #
                  #                 D-45470 Muelheim/Ruhr               #
                  #                      Germany                        #
                  #                                                     #
                  #                  All rights reserved                #
                  #                        -***-                        #
                  #######################################################


                         Program Version 5.0.3 -  RELEASE  -


 With contributions from (in alphabetic order):
   Daniel Aravena         : Magnetic Suceptibility
   Michael Atanasov       : Ab Initio Ligand Field Theory (pilot matlab implementation)
   Alexander A. Auer      : GIAO ZORA, VPT2 properties, NMR spectrum
   Ute Becker             : Parallelization
   Giovanni Bistoni       : ED, misc. LED, open-shell LED, HFLD
   Martin Brehm           : Molecular dynamics
   Dmytro Bykov           : SCF Hessian
   Vijay G. Chilkuri      : MRCI spin determinant printing, contributions to CSF-ICE
   Dipayan Datta          : RHF DLPNO-CCSD density
   Achintya Kumar Dutta   : EOM-CC, STEOM-CC
   Dmitry Ganyushin       : Spin-Orbit,Spin-Spin,Magnetic field MRCI
   Miquel Garcia          : C-PCM and meta-GGA Hessian, CC/C-PCM, Gaussian charge scheme
   Yang Guo               : DLPNO-NEVPT2, F12-NEVPT2, CIM, IAO-localization
   Andreas Hansen         : Spin unrestricted coupled pair/coupled cluster methods
   Benjamin Helmich-Paris : MC-RPA, TRAH-SCF, COSX integrals
   Lee Huntington         : MR-EOM, pCC
   Robert Izsak           : Overlap fitted RIJCOSX, COSX-SCS-MP3, EOM
   Marcus Kettner         : VPT2
   Christian Kollmar      : KDIIS, OOCD, Brueckner-CCSD(T), CCSD density, CASPT2, CASPT2-K
   Simone Kossmann        : Meta GGA functionals, TD-DFT gradient, OOMP2, MP2 Hessian
   Martin Krupicka        : Initial AUTO-CI
   Lucas Lang             : DCDCAS
   Marvin Lechner         : AUTO-CI (C++ implementation), FIC-MRCC
   Dagmar Lenk            : GEPOL surface, SMD
   Dimitrios Liakos       : Extrapolation schemes; Compound Job, initial MDCI parallelization
   Dimitrios Manganas     : Further ROCIS development; embedding schemes
   Dimitrios Pantazis     : SARC Basis sets
   Anastasios Papadopoulos: AUTO-CI, single reference methods and gradients
   Taras Petrenko         : DFT Hessian,TD-DFT gradient, ASA, ECA, R-Raman, ABS, FL, XAS/XES, NRVS
   Peter Pinski           : DLPNO-MP2, DLPNO-MP2 Gradient
   Christoph Reimann      : Effective Core Potentials
   Marius Retegan         : Local ZFS, SOC
   Christoph Riplinger    : Optimizer, TS searches, QM/MM, DLPNO-CCSD(T), (RO)-DLPNO pert. Triples
   Tobias Risthaus        : Range-separated hybrids, TD-DFT gradient, RPA, STAB
   Michael Roemelt        : Original ROCIS implementation
   Masaaki Saitow         : Open-shell DLPNO-CCSD energy and density
   Barbara Sandhoefer     : DKH picture change effects
   Avijit Sen             : IP-ROCIS
   Kantharuban Sivalingam : CASSCF convergence, NEVPT2, FIC-MRCI
   Bernardo de Souza      : ESD, SOC TD-DFT
   Georgi Stoychev        : AutoAux, RI-MP2 NMR, DLPNO-MP2 response
   Willem Van den Heuvel  : Paramagnetic NMR
   Boris Wezisla          : Elementary symmetry handling
   Frank Wennmohs         : Technical directorship


 We gratefully acknowledge several colleagues who have allowed us to
 interface, adapt or use parts of their codes:
   Stefan Grimme, W. Hujo, H. Kruse, P. Pracht,  : VdW corrections, initial TS optimization,
                  C. Bannwarth, S. Ehlert          DFT functionals, gCP, sTDA/sTD-DF
   Ed Valeev, F. Pavosevic, A. Kumar             : LibInt (2-el integral package), F12 methods
   Garnet Chan, S. Sharma, J. Yang, R. Olivares  : DMRG
   Ulf Ekstrom                                   : XCFun DFT Library
   Mihaly Kallay                                 : mrcc  (arbitrary order and MRCC methods)
   Jiri Pittner, Ondrej Demel                    : Mk-CCSD
   Frank Weinhold                                : gennbo (NPA and NBO analysis)
   Christopher J. Cramer and Donald G. Truhlar   : smd solvation model
   Lars Goerigk                                  : TD-DFT with DH, B97 family of functionals
   V. Asgeirsson, H. Jonsson                     : NEB implementation
   FAccTs GmbH                                   : IRC, NEB, NEB-TS, DLPNO-Multilevel, CI-OPT
                                                   MM, QMMM, 2- and 3-layer-ONIOM, Crystal-QMMM,
                                                   LR-CPCM, SF, NACMEs, symmetry and pop. for TD-DFT,
                                                   nearIR, NL-DFT gradient (VV10), updates on ESD,
                                                   ML-optimized integration grids
   S Lehtola, MJT Oliveira, MAL Marques          : LibXC Library
   Liviu Ungur et al                             : ANISO software


 Your calculation uses the libint2 library for the computation of 2-el integrals
 For citations please refer to: http://libint.valeyev.net

 Your ORCA version has been built with support for libXC version: 5.1.0
 For citations please refer to: https://tddft.org/programs/libxc/

 This ORCA versions uses:
   CBLAS   interface :  Fast vector & matrix operations
   LAPACKE interface :  Fast linear algebra routines
   SCALAPACK package :  Parallel linear algebra routines
   Shared memory     :  Shared parallel matrices
   BLAS/LAPACK       :  OpenBLAS 0.3.19 NO_AFFINITY VORTEX SINGLE_THREADED
        Core in use  :  VORTEX
   Copyright (c) 2011-2014, The OpenBLAS Project


================================================================================

----- Orbital basis set information -----
Your calculation utilizes the basis: def2-SVP
   F. Weigend and R. Ahlrichs, Phys. Chem. Chem. Phys. 7, 3297 (2005).

----- AuxJ basis set information -----
Your calculation utilizes the auxiliary basis: def2/J
   F. Weigend, Phys. Chem. Chem. Phys. 8, 1057 (2006).

================================================================================
                                        WARNINGS
                       Please study these warnings very carefully!
================================================================================


INFO   : the flag for use of the SHARK integral package has been found!

================================================================================
                                       INPUT FILE
================================================================================
NAME = aspirin_acetone.inp
|  1> ! B3LYP def2-SVP Freq CPCM(acetone) TightSCF
|  2> 
|  3> * xyz 0 1
|  4>    C        1.13028        0.19443        0.09949
|  5>    C        2.61174        0.26349        0.31996
|  6>    O        3.19210       -0.21987        1.28522
|  7>    O        3.19831        1.00240       -0.70129
|  8>    C        4.59322        1.05993       -0.61539
|  9>    C        5.16150        2.30684       -0.35132
| 10>    C        6.54969        2.42706       -0.26742
| 11>    C        7.36633        1.31008       -0.46118
| 12>    C        6.79829        0.06603       -0.74472
| 13>    C        5.40555       -0.05991       -0.82411
| 14>    C        4.81502       -1.36827       -1.16468
| 15>    O        5.22892       -2.34505       -0.33020
| 16>    O        4.02936       -1.53671       -2.07919
| 17>    H        0.75190       -0.75117        0.49730
| 18>    H        0.90152        0.21902       -0.96983
| 19>    H        0.64585        1.03399        0.60276
| 20>    H        4.52988        3.17919       -0.20747
| 21>    H        6.99747        3.39615       -0.05777
| 22>    H        8.44794        1.41455       -0.40621
| 23>    H        7.44319       -0.79049       -0.92893
| 24>    H        5.64068       -2.00429        0.48906
| 25> **                         ****END OF INPUT****
================================================================================

                       ****************************
                       * Single Point Calculation *
                       ****************************

---------------------------------
CARTESIAN COORDINATES (ANGSTROEM)
---------------------------------
  C      1.130280    0.194430    0.099490
  C      2.611740    0.263490    0.319960
  O      3.192100   -0.219870    1.285220
  O      3.198310    1.002400   -0.701290
  C      4.593220    1.059930   -0.615390
  C      5.161500    2.306840   -0.351320
  C      6.549690    2.427060   -0.267420
  C      7.366330    1.310080   -0.461180
  C      6.798290    0.066030   -0.744720
  C      5.405550   -0.059910   -0.824110
  C      4.815020   -1.368270   -1.164680
  O      5.228920   -2.345050   -0.330200
  O      4.029360   -1.536710   -2.079190
  H      0.751900   -0.751170    0.497300
  H      0.901520    0.219020   -0.969830
  H      0.645850    1.033990    0.602760
  H      4.529880    3.179190   -0.207470
  H      6.997470    3.396150   -0.057770
  H      8.447940    1.414550   -0.406210
  H      7.443190   -0.790490   -0.928930
  H      5.640680   -2.004290    0.489060

----------------------------
CARTESIAN COORDINATES (A.U.)
----------------------------
  NO LB      ZA    FRAG     MASS         X           Y           Z
   0 C     6.0000    0    12.011    2.135920    0.367419    0.188009
   1 C     6.0000    0    12.011    4.935473    0.497924    0.604637
   2 O     8.0000    0    15.999    6.032195   -0.415494    2.428714
   3 O     8.0000    0    15.999    6.043930    1.894261   -1.325246
   4 C     6.0000    0    12.011    8.679928    2.002977   -1.162919
   5 C     6.0000    0    12.011    9.753821    4.359296   -0.663899
   6 C     6.0000    0    12.011   12.377120    4.586479   -0.505351
   7 C     6.0000    0    12.011   13.920346    2.475692   -0.871504
   8 C     6.0000    0    12.011   12.846906    0.124779   -1.407317
   9 C     6.0000    0    12.011   10.215009   -0.113213   -1.557342
  10 C     6.0000    0    12.011    9.099069   -2.585656   -2.200926
  11 O     8.0000    0    15.999    9.881227   -4.431502   -0.623988
  12 O     8.0000    0    15.999    7.614387   -2.903961   -3.929100
  13 H     1.0000    0     1.008    1.420885   -1.419506    0.939761
  14 H     1.0000    0     1.008    1.703626    0.413888   -1.832713
  15 H     1.0000    0     1.008    1.220480    1.953958    1.139051
  16 H     1.0000    0     1.008    8.560233    6.007798   -0.392061
  17 H     1.0000    0     1.008   13.223302    6.417793   -0.109169
  18 H     1.0000    0     1.008   15.964293    2.673112   -0.767626
  19 H     1.0000    0     1.008   14.065591   -1.493810   -1.755423
  20 H     1.0000    0     1.008   10.659340   -3.787559    0.924189

--------------------------------
INTERNAL COORDINATES (ANGSTROEM)
--------------------------------
 C      0   0   0     0.000000000000     0.00000000     0.00000000
 C      1   0   0     1.499366544945     0.00000000     0.00000000
 O      2   1   0     1.225635136083   124.43717809     0.00000000
 O      2   1   3     1.390325111440   109.47078752   182.54610618
 C      4   2   1     1.398736007615   113.42131316   183.19491144
 C      5   4   2     1.395514124400   117.03124764   246.41544752
 C      6   5   4     1.395909572465   119.55722319   180.61951264
 C      7   6   5     1.397171481100   120.27002195     0.71325432
 C      8   7   6     1.396683491597   120.16729635     0.21493515
 C      5   4   2     1.399101745014   122.47544088    68.45517231
 C     10   5   4     1.475303187619   120.78788536     0.71137297
 O     11  10   5     1.349729324272   112.10622187   233.58987440
 O     11  10   5     1.217358701986   123.67335046    52.45122986
 H      1   2   3     1.093427446381   109.16273330   326.46221953
 H      1   2   3     1.093792058894   110.44835586   208.32196963
 H      1   2   3     1.092160295653   109.57806859    87.10754015
 H      6   5   4     1.086568529546   120.37728327     0.87207908
 H      7   6   5     1.087931743723   119.84199441   180.24714235
 H      8   7   6     1.088033029784   119.81997430   179.25070290
 H      9   8   7     1.087867567538   119.64151486   177.83645639
 H     12  11  10     0.978187417012   113.25284926    15.73230759

---------------------------
INTERNAL COORDINATES (A.U.)
---------------------------
 C      0   0   0     0.000000000000     0.00000000     0.00000000
 C      1   0   0     2.833392144310     0.00000000     0.00000000
 O      2   1   0     2.316114747307   124.43717809     0.00000000
 O      2   1   3     2.627333697735   109.47078752   182.54610618
 C      4   2   1     2.643227988048   113.42131316   183.19491144
 C      5   4   2     2.637139511135   117.03124764   246.41544752
 C      6   5   4     2.637886799678   119.55722319   180.61951264
 C      7   6   5     2.640271461405   120.27002195     0.71325432
 C      8   7   6     2.639349294888   120.16729635     0.21493515
 C      5   4   2     2.643919131567   122.47544088    68.45517231
 C     10   5   4     2.787918989102   120.78788536     0.71137297
 O     11  10   5     2.550618777797   112.10622187   233.58987440
 O     11  10   5     2.300474553499   123.67335046    52.45122986
 H      1   2   3     2.066278420974   109.16273330   326.46221953
 H      1   2   3     2.066967438768   110.44835586   208.32196963
 H      1   2   3     2.063883853126   109.57806859    87.10754015
 H      6   5   4     2.053316946580   120.37728327     0.87207908
 H      7   6   5     2.055893048036   119.84199441   180.24714235
 H      8   7   6     2.056084450952   119.81997430   179.25070290
 H      9   8   7     2.055771772621   119.64151486   177.83645639
 H     12  11  10     1.848506325800   113.25284926    15.73230759

---------------------
BASIS SET INFORMATION
---------------------
There are 3 groups of distinct atoms

 Group   1 Type C   : 7s4p1d contracted to 3s2p1d pattern {511/31/1}
 Group   2 Type O   : 7s4p1d contracted to 3s2p1d pattern {511/31/1}
 Group   3 Type H   : 4s1p contracted to 2s1p pattern {31/1}

Atom   0C    basis set group =>   1
Atom   1C    basis set group =>   1
Atom   2O    basis set group =>   2
Atom   3O    basis set group =>   2
Atom   4C    basis set group =>   1
Atom   5C    basis set group =>   1
Atom   6C    basis set group =>   1
Atom   7C    basis set group =>   1
Atom   8C    basis set group =>   1
Atom   9C    basis set group =>   1
Atom  10C    basis set group =>   1
Atom  11O    basis set group =>   2
Atom  12O    basis set group =>   2
Atom  13H    basis set group =>   3
Atom  14H    basis set group =>   3
Atom  15H    basis set group =>   3
Atom  16H    basis set group =>   3
Atom  17H    basis set group =>   3
Atom  18H    basis set group =>   3
Atom  19H    basis set group =>   3
Atom  20H    basis set group =>   3
---------------------------------
AUXILIARY/J BASIS SET INFORMATION
---------------------------------
There are 3 groups of distinct atoms

 Group   1 Type C   : 12s5p4d2f1g contracted to 6s4p3d1f1g pattern {711111/2111/211/2/1}
 Group   2 Type O   : 12s5p4d2f1g contracted to 6s4p3d1f1g pattern {711111/2111/211/2/1}
 Group   3 Type H   : 5s2p1d contracted to 3s1p1d pattern {311/2/1}

Atom   0C    basis set group =>   1
Atom   1C    basis set group =>   1
Atom   2O    basis set group =>   2
Atom   3O    basis set group =>   2
Atom   4C    basis set group =>   1
Atom   5C    basis set group =>   1
Atom   6C    basis set group =>   1
Atom   7C    basis set group =>   1
Atom   8C    basis set group =>   1
Atom   9C    basis set group =>   1
Atom  10C    basis set group =>   1
Atom  11O    basis set group =>   2
Atom  12O    basis set group =>   2
Atom  13H    basis set group =>   3
Atom  14H    basis set group =>   3
Atom  15H    basis set group =>   3
Atom  16H    basis set group =>   3
Atom  17H    basis set group =>   3
Atom  18H    basis set group =>   3
Atom  19H    basis set group =>   3
Atom  20H    basis set group =>   3
------------------------------------------------------------------------------
                           ORCA GTO INTEGRAL CALCULATION
                           -- RI-GTO INTEGRALS CHOSEN --
------------------------------------------------------------------------------
------------------------------------------------------------------------------
                   ___                                                        
                  /   \      - P O W E R E D   B Y -                         
                 /     \                                                     
                 |  |  |   _    _      __       _____    __    __             
                 |  |  |  | |  | |    /  \     |  _  \  |  |  /  |          
                  \  \/   | |  | |   /    \    | | | |  |  | /  /          
                 / \  \   | |__| |  /  /\  \   | |_| |  |  |/  /          
                |  |  |   |  __  | /  /__\  \  |    /   |      \           
                |  |  |   | |  | | |   __   |  |    \   |  |\   \          
                \     /   | |  | | |  |  |  |  | |\  \  |  | \   \       
                 \___/    |_|  |_| |__|  |__|  |_| \__\ |__|  \__/        
                                                                              
                      - O R C A' S   B I G   F R I E N D -                    
                                      &                                       
                       - I N T E G R A L  F E E D E R -                       
                                                                              
 v1 FN, 2020, v2 2021                                                         
------------------------------------------------------------------------------


Reading SHARK input file aspirin_acetone.SHARKINP.tmp ... ok
----------------------
SHARK INTEGRAL PACKAGE
----------------------

Number of atoms                             ...     21
Number of basis functions                   ...    222
Number of shells                            ...    102
Maximum angular momentum                    ...      2
Integral batch strategy                     ... SHARK/LIBINT Hybrid
RI-J (if used) integral strategy            ... SPLIT-RIJ (Revised 2003 algorithm where possible)
Printlevel                                  ...      1
Contraction scheme used                     ... SEGMENTED contraction
Coulomb Range Separation                    ... NOT USED
Exchange Range Separation                   ... NOT USED
Finite Nucleus Model                        ... NOT USED
Auxiliary Coulomb fitting basis             ... AVAILABLE
   # of basis functions in Aux-J            ...    725
   # of shells in Aux-J                     ...    235
   Maximum angular momentum in Aux-J        ...      4
Auxiliary J/K fitting basis                 ... NOT available
Auxiliary Correlation fitting basis         ... NOT available
Auxiliary 'external' fitting basis          ... NOT available
Integral threshold                          ...     2.500000e-11
Primitive cut-off                           ...     2.500000e-12
Primitive pair pre-selection threshold      ...     2.500000e-12

Calculating pre-screening integrals         ... done (  0.0 sec) Dimension = 102
Organizing shell pair data                  ... done (  0.0 sec)
Shell pair information
Total number of shell pairs                 ...      5253
Shell pairs after pre-screening             ...      4619
Total number of primitive shell pairs       ...     19499
Primitive shell pairs kept                  ...     11700
          la=0 lb=0:   1350 shell pairs
          la=1 lb=0:   1660 shell pairs
          la=1 lb=1:    539 shell pairs
          la=2 lb=0:    603 shell pairs
          la=2 lb=1:    387 shell pairs
          la=2 lb=2:     80 shell pairs

Calculating one electron integrals          ... done (  0.0 sec)
Calculating RI/J V-Matrix + Cholesky decomp.... done (  0.0 sec)
Calculating Nuclear repulsion               ... done (  0.0 sec) ENN=    787.683978245537 Eh

SHARK setup successfully completed in   0.1 seconds

Maximum memory used throughout the entire GTOINT-calculation: 36.0 MB
-------------------------------------------------------------------------------
                                 ORCA SCF
-------------------------------------------------------------------------------

------------
SCF SETTINGS
------------
Hamiltonian:
 Density Functional     Method          .... DFT(GTOs)
 Exchange Functional    Exchange        .... B88
   X-Alpha parameter    XAlpha          ....  0.666667
   Becke's b parameter  XBeta           ....  0.004200
 Correlation Functional Correlation     .... LYP
 LDA part of GGA corr.  LDAOpt          .... VWN-5
 Gradients option       PostSCFGGA      .... off
 Hybrid DFT is turned on
   Fraction HF Exchange ScalHFX         ....  0.200000
   Scaling of DF-GGA-X  ScalDFX         ....  0.720000
   Scaling of DF-GGA-C  ScalDFC         ....  0.810000
   Scaling of DF-LDA-C  ScalLDAC        ....  1.000000
   Perturbative correction              ....  0.000000
   Density functional embedding theory  .... OFF
   NL short-range parameter             ....  4.800000
 RI-approximation to the Coulomb term is turned on
   Number of AuxJ basis functions       .... 725
   RIJ-COSX (HFX calculated with COS-X)).... on


General Settings:
 Integral files         IntName         .... aspirin_acetone
 Hartree-Fock type      HFTyp           .... RHF
 Total Charge           Charge          ....    0
 Multiplicity           Mult            ....    1
 Number of Electrons    NEL             ....   94
 Basis Dimension        Dim             ....  222
 Nuclear Repulsion      ENuc            ....    787.6839782455 Eh

Convergence Acceleration:
 DIIS                   CNVDIIS         .... on
   Start iteration      DIISMaxIt       ....    12
   Startup error        DIISStart       ....  0.200000
   # of expansion vecs  DIISMaxEq       ....     5
   Bias factor          DIISBfac        ....   1.050
   Max. coefficient     DIISMaxC        ....  10.000
 Trust-Rad. Augm. Hess. CNVTRAH         .... auto
   Auto Start mean grad. ratio tolernc. ....  1.125000
   Auto Start start iteration           ....    20
   Auto Start num. interpolation iter.  ....    10
   Max. Number of Micro iterations      ....    16
   Max. Number of Macro iterations      .... Maxiter - #DIIS iter
   Number of Davidson start vectors     ....     2
   Converg. threshold I  (grad. norm)   ....   1.000e-05
   Converg. threshold II (energy diff.) ....   1.000e-08
   Grad. Scal. Fac. for Micro threshold ....   0.100
   Minimum threshold for Micro iter.    ....   0.010
   NR start threshold (gradient norm)   ....   0.001
   Initial trust radius                 ....   0.400
   Minimum AH scaling param. (alpha)    ....   1.000
   Maximum AH scaling param. (alpha)    .... 1000.000
   Orbital update algorithm             .... Taylor
   White noise on init. David. guess    .... on
   Maximum white noise                  ....   0.010
   Quad. conv. algorithm                .... NR
 SOSCF                  CNVSOSCF        .... on
   Start iteration      SOSCFMaxIt      ....   150
   Startup grad/error   SOSCFStart      ....  0.003300
 Level Shifting         CNVShift        .... on
   Level shift para.    LevelShift      ....    0.2500
   Turn off err/grad.   ShiftErr        ....    0.0010
 Zerner damping         CNVZerner       .... off
 Static damping         CNVDamp         .... on
   Fraction old density DampFac         ....    0.7000
   Max. Damping (<1)    DampMax         ....    0.9800
   Min. Damping (>=0)   DampMin         ....    0.0000
   Turn off err/grad.   DampErr         ....    0.1000
 Fernandez-Rico         CNVRico         .... off

SCF Procedure:
 Maximum # iterations   MaxIter         ....   125
 SCF integral mode      SCFMode         .... Direct
   Integral package                     .... SHARK and LIBINT hybrid scheme
 Reset frequency        DirectResetFreq ....    20
 Integral Threshold     Thresh          ....  2.500e-11 Eh
 Primitive CutOff       TCut            ....  2.500e-12 Eh

Convergence Tolerance:
 Convergence Check Mode ConvCheckMode   .... Total+1el-Energy
 Convergence forced     ConvForced      .... 0
 Energy Change          TolE            ....  1.000e-08 Eh
 1-El. energy change                    ....  1.000e-05 Eh
 Orbital Gradient       TolG            ....  1.000e-05
 Orbital Rotation angle TolX            ....  1.000e-05
 DIIS Error             TolErr          ....  5.000e-07


Diagonalization of the overlap matrix:
Smallest eigenvalue                        ... 2.461e-04
Time for diagonalization                   ...    0.005 sec
Threshold for overlap eigenvalues          ... 1.000e-08
Number of eigenvalues below threshold      ... 0
Time for construction of square roots      ...    0.001 sec
Total time needed                          ...    0.007 sec

Time for model grid setup =    0.151 sec

------------------------------
INITIAL GUESS: MODEL POTENTIAL
------------------------------
Loading Hartree-Fock densities                     ... done
Calculating cut-offs                               ... done
Initializing the effective Hamiltonian             ... done
Setting up the integral package (SHARK)            ... done
Starting the Coulomb interaction                   ... done (   0.1 sec)
Reading the grid                                   ... done
Mapping shells                                     ... done
Starting the XC term evaluation                    ... done (   0.2 sec)
  promolecular density results
     # of electrons  =     93.996405655
     EX              =    -81.420895138
     EC              =     -3.253147059
     EX+EC           =    -84.674042196
Transforming the Hamiltonian                       ... done (   0.0 sec)
Diagonalizing the Hamiltonian                      ... done (   0.0 sec)
Back transforming the eigenvectors                 ... done (   0.0 sec)
Now organizing SCF variables                       ... done
                      ------------------
                      INITIAL GUESS DONE (   0.5 sec)
                      ------------------
-------------------
DFT GRID GENERATION
-------------------

General Integration Accuracy     IntAcc      ... 4.388
Radial Grid Type                 RadialGrid  ... OptM3 with GC (2021)
Angular Grid (max. ang.)         AngularGrid ... 4 (Lebedev-302)
Angular grid pruning method      GridPruning ... 4 (adaptive)
Weight generation scheme         WeightScheme... Becke
Basis function cutoff            BFCut       ... 1.0000e-11
Integration weight cutoff        WCut        ... 1.0000e-14
Angular grids for H and He will be reduced by one unit
Partially contracted basis set               ... off
Rotationally invariant grid construction     ... off

Total number of grid points                  ...   103992
Total number of batches                      ...     1636
Average number of points per batch           ...       63
Average number of grid points per atom       ...     4952
Time for grid setup =    0.614 sec

--------------------
COSX GRID GENERATION
--------------------

GRIDX 1
-------
General Integration Accuracy     IntAcc      ... 3.816
Radial Grid Type                 RadialGrid  ... OptM3 with GC (2021)
Angular Grid (max. ang.)         AngularGrid ... 1 (Lebedev-50)
Angular grid pruning method      GridPruning ... 4 (adaptive)
Weight generation scheme         WeightScheme... Becke
Basis function cutoff            BFCut       ... 1.0000e-11
Integration weight cutoff        WCut        ... 1.0000e-14
Angular grids for H and He will be reduced by one unit
Partially contracted basis set               ... on
Rotationally invariant grid construction     ... off

Total number of grid points                  ...    13227
Total number of batches                      ...      215
Average number of points per batch           ...       61
Average number of grid points per atom       ...      630
UseSFitting                                  ... on

GRIDX 2
-------
General Integration Accuracy     IntAcc      ... 4.020
Radial Grid Type                 RadialGrid  ... OptM3 with GC (2021)
Angular Grid (max. ang.)         AngularGrid ... 2 (Lebedev-110)
Angular grid pruning method      GridPruning ... 4 (adaptive)
Weight generation scheme         WeightScheme... Becke
Basis function cutoff            BFCut       ... 1.0000e-11
Integration weight cutoff        WCut        ... 1.0000e-14
Angular grids for H and He will be reduced by one unit
Partially contracted basis set               ... on
Rotationally invariant grid construction     ... off

Total number of grid points                  ...    29307
Total number of batches                      ...      468
Average number of points per batch           ...       62
Average number of grid points per atom       ...     1396
UseSFitting                                  ... on

GRIDX 3
-------
General Integration Accuracy     IntAcc      ... 4.338
Radial Grid Type                 RadialGrid  ... OptM3 with GC (2021)
Angular Grid (max. ang.)         AngularGrid ... 3 (Lebedev-194)
Angular grid pruning method      GridPruning ... 4 (adaptive)
Weight generation scheme         WeightScheme... Becke
Basis function cutoff            BFCut       ... 1.0000e-11
Integration weight cutoff        WCut        ... 1.0000e-14
Angular grids for H and He will be reduced by one unit
Partially contracted basis set               ... on
Rotationally invariant grid construction     ... off

Total number of grid points                  ...    64477
Total number of batches                      ...     1018
Average number of points per batch           ...       63
Average number of grid points per atom       ...     3070
UseSFitting                                  ... on

Time for X-Grid setup             =    0.718 sec


--------------------
CPCM SOLVATION MODEL
--------------------
CPCM parameters:
  Epsilon                                         ...      20.7000
  Refrac                                          ...       1.3590
  Rsolv                                           ...       1.3000
  Surface type                                    ... GAUSSIAN VDW
  Epsilon function type                           ...         CPCM
Radii:
 Radius for C  used is    3.8550 Bohr (=   2.0400 Ang.)
 Radius for O  used is    3.4469 Bohr (=   1.8240 Ang.)
 Radius for H  used is    2.4944 Bohr (=   1.3200 Ang.)
Calculating surface                               ...        done! (  0.0s)
GEPOL surface points                              ...         1186
GEPOL Volume                                      ...    1401.1183
GEPOL Surface-area                                ...     763.0786
Calculating surface distance matrix               ...        done! (  0.0s)
Performing Cholesky decomposition & store         ...        done! (  0.0s)
Overall time for CPCM initialization              ...                 0.0s
--------------
SCF ITERATIONS
--------------
ITER       Energy         Delta-E        Max-DP      RMS-DP      [F,P]     Damp
               ***  Starting incremental Fock matrix formation  ***
  0   -647.5018575986   0.000000000000 0.09300971  0.00258644  0.2591423 0.7000
  1   -647.6827343693  -0.180876770718 0.05109499  0.00162752  0.0974368 0.7000
                               ***Turning on DIIS***
  2   -647.7453869754  -0.062652606099 0.07553778  0.00246831  0.0376241 0.0000
  3   -647.8561323936  -0.110745418183 0.04320582  0.00109354  0.0500925 0.0000
  4   -647.8750600944  -0.018927700821 0.01125148  0.00032561  0.0143990 0.0000
  5   -647.8768601365  -0.001800042103 0.00384525  0.00010244  0.0033604 0.0000
                      *** Initiating the SOSCF procedure ***
                           *** Shutting down DIIS ***
                      *** Re-Reading the Fockian *** 
                      *** Removing any level shift *** 
ITER      Energy       Delta-E        Grad      Rot      Max-DP    RMS-DP
  6   -647.87692176  -0.0000616268  0.000292  0.000292  0.001566  0.000037
               *** Restarting incremental Fock matrix formation ***
  7   -647.87698196  -0.0000601933  0.000112  0.000391  0.000616  0.000023
  8   -647.87698205  -0.0000000920  0.000140  0.000127  0.000505  0.000010
  9   -647.87698333  -0.0000012787  0.000037  0.000098  0.000162  0.000005
 10   -647.87698327   0.0000000554  0.000048  0.000056  0.000107  0.000003
 11   -647.87698339  -0.0000001215  0.000009  0.000020  0.000047  0.000001
 12   -647.87698339   0.0000000020  0.000013  0.000011  0.000030  0.000001
                  ***Gradient check signals convergence***
              ***Rediagonalizing the Fockian in SOSCF/NRSCF***

               *****************************************************
               *                     SUCCESS                       *
               *           SCF CONVERGED AFTER  13 CYCLES          *
               *****************************************************

Old exchange energy                            =    -16.453783736 Eh
New exchange energy                            =    -16.453801928 Eh
Exchange energy change after final integration =     -0.000018192 Eh
Total energy after final integration           =   -647.877001588 Eh
Final COS-X integration done in                =     9.460 sec

----------------
TOTAL SCF ENERGY
----------------

Total Energy       :         -647.87700159 Eh          -17629.62949 eV

Components:
Nuclear Repulsion  :          787.68397825 Eh           21433.97073 eV
Electronic Energy  :        -1435.56097983 Eh          -39063.60022 eV
One Electron Energy:        -2446.71375024 Eh          -66578.46593 eV
Two Electron Energy:         1011.15277040 Eh           27514.86571 eV
Max COSX asymmetry :            0.00000223 Eh               0.00006 eV
CPCM Dielectric    :           -0.02034870 Eh              -0.55372 eV

Virial components:
Potential Energy   :        -1290.02005328 Eh          -35103.23026 eV
Kinetic Energy     :          642.14305169 Eh           17473.60078 eV
Virial Ratio       :            2.00892940


DFT components:
N(Alpha)           :       47.000035360553 electrons
N(Beta)            :       47.000035360553 electrons
N(Total)           :       94.000070721107 electrons
E(X)               :      -65.464378216959 Eh       
E(C)               :       -3.832556939315 Eh       
E(XC)              :      -69.296935156274 Eh       
DFET-embed. en.    :        0.000000000000 Eh       
CPCM Solvation Model Properties:
Surface-charge          :           -0.01589269
Charge-correction       :           -0.00004312 Eh              -0.00117 eV
Free-energy (cav+disp)  :  This term is not implemented in the current solvation scheme

---------------
SCF CONVERGENCE
---------------

  Last Energy change         ...   -4.7394e-09  Tolerance :   1.0000e-08
  Last MAX-Density change    ...    5.3291e-15  Tolerance :   1.0000e-07
  Last RMS-Density change    ...    5.7673e-17  Tolerance :   5.0000e-09
  Last Orbital Gradient      ...    1.0753e-06  Tolerance :   1.0000e-05
  Last Orbital Rotation      ...    4.2553e-06  Tolerance :   1.0000e-05

             **** THE GBW FILE WAS UPDATED (aspirin_acetone.gbw) ****
             **** DENSITY aspirin_acetone.scfp WAS UPDATED ****
             **** ENERGY FILE WAS UPDATED (aspirin_acetone.en.tmp) ****
             **** THE GBW FILE WAS UPDATED (aspirin_acetone.gbw) ****
             **** DENSITY aspirin_acetone.scfp WAS UPDATED ****
----------------
ORBITAL ENERGIES
----------------

  NO   OCC          E(Eh)            E(eV) 
   0   2.0000     -19.200000      -522.4586 
   1   2.0000     -19.183564      -522.0113 
   2   2.0000     -19.142043      -520.8815 
   3   2.0000     -19.133681      -520.6539 
   4   2.0000     -10.333635      -281.1925 
   5   2.0000     -10.330386      -281.1041 
   6   2.0000     -10.265440      -279.3368 
   7   2.0000     -10.213266      -277.9171 
   8   2.0000     -10.208716      -277.7933 
   9   2.0000     -10.203011      -277.6380 
  10   2.0000     -10.202218      -277.6165 
  11   2.0000     -10.199541      -277.5436 
  12   2.0000     -10.192583      -277.3543 
  13   2.0000      -1.106785       -30.1172 
  14   2.0000      -1.091428       -29.6993 
  15   2.0000      -1.022397       -27.8208 
  16   2.0000      -1.014514       -27.6063 
  17   2.0000      -0.866960       -23.5912 
  18   2.0000      -0.774717       -21.0811 
  19   2.0000      -0.770425       -20.9643 
  20   2.0000      -0.732095       -19.9213 
  21   2.0000      -0.659001       -17.9323 
  22   2.0000      -0.631241       -17.1769 
  23   2.0000      -0.622187       -16.9306 
  24   2.0000      -0.590192       -16.0599 
  25   2.0000      -0.540580       -14.7099 
  26   2.0000      -0.508105       -13.8262 
  27   2.0000      -0.499551       -13.5935 
  28   2.0000      -0.493231       -13.4215 
  29   2.0000      -0.474807       -12.9202 
  30   2.0000      -0.466424       -12.6920 
  31   2.0000      -0.456595       -12.4246 
  32   2.0000      -0.446741       -12.1564 
  33   2.0000      -0.444818       -12.1041 
  34   2.0000      -0.416140       -11.3238 
  35   2.0000      -0.400978       -10.9112 
  36   2.0000      -0.398781       -10.8514 
  37   2.0000      -0.390242       -10.6190 
  38   2.0000      -0.381395       -10.3783 
  39   2.0000      -0.369799       -10.0627 
  40   2.0000      -0.367272        -9.9940 
  41   2.0000      -0.336311        -9.1515 
  42   2.0000      -0.327422        -8.9096 
  43   2.0000      -0.296790        -8.0761 
  44   2.0000      -0.289394        -7.8748 
  45   2.0000      -0.270183        -7.3521 
  46   2.0000      -0.262405        -7.1404 
  47   0.0000      -0.045216        -1.2304 
  48   0.0000      -0.027130        -0.7383 
  49   0.0000      -0.010393        -0.2828 
  50   0.0000       0.016854         0.4586 
  51   0.0000       0.067292         1.8311 
  52   0.0000       0.073919         2.0114 
  53   0.0000       0.083740         2.2787 
  54   0.0000       0.112209         3.0534 
  55   0.0000       0.126626         3.4457 
  56   0.0000       0.130272         3.5449 
  57   0.0000       0.141446         3.8489 
  58   0.0000       0.148489         4.0406 
  59   0.0000       0.156546         4.2598 
  60   0.0000       0.170313         4.6345 
  61   0.0000       0.192032         5.2255 
  62   0.0000       0.225315         6.1311 
  63   0.0000       0.244170         6.6442 
  64   0.0000       0.271824         7.3967 
  65   0.0000       0.285439         7.7672 
  66   0.0000       0.294482         8.0133 
  67   0.0000       0.301403         8.2016 
  68   0.0000       0.308532         8.3956 
  69   0.0000       0.338775         9.2185 
  70   0.0000       0.348896         9.4939 
  71   0.0000       0.379385        10.3236 
  72   0.0000       0.398902        10.8547 
  73   0.0000       0.406648        11.0655 
  74   0.0000       0.431971        11.7545 
  75   0.0000       0.434746        11.8300 
  76   0.0000       0.449829        12.2405 
  77   0.0000       0.460864        12.5407 
  78   0.0000       0.463511        12.6128 
  79   0.0000       0.474992        12.9252 
  80   0.0000       0.479984        13.0610 
  81   0.0000       0.498924        13.5764 
  82   0.0000       0.503540        13.7020 
  83   0.0000       0.517367        14.0783 
  84   0.0000       0.522471        14.2172 
  85   0.0000       0.548595        14.9280 
  86   0.0000       0.566364        15.4116 
  87   0.0000       0.575828        15.6691 
  88   0.0000       0.589281        16.0352 
  89   0.0000       0.596205        16.2236 
  90   0.0000       0.603446        16.4206 
  91   0.0000       0.618859        16.8400 
  92   0.0000       0.635824        17.3017 
  93   0.0000       0.639287        17.3959 
  94   0.0000       0.641924        17.4676 
  95   0.0000       0.653251        17.7759 
  96   0.0000       0.656440        17.8626 
  97   0.0000       0.662162        18.0184 
  98   0.0000       0.667454        18.1624 
  99   0.0000       0.674662        18.3585 
 100   0.0000       0.698187        18.9986 
 101   0.0000       0.715630        19.4733 
 102   0.0000       0.722456        19.6590 
 103   0.0000       0.725071        19.7302 
 104   0.0000       0.751030        20.4366 
 105   0.0000       0.760663        20.6987 
 106   0.0000       0.785835        21.3837 
 107   0.0000       0.797395        21.6982 
 108   0.0000       0.826785        22.4980 
 109   0.0000       0.852230        23.1903 
 110   0.0000       0.871641        23.7186 
 111   0.0000       0.894346        24.3364 
 112   0.0000       0.922882        25.1129 
 113   0.0000       0.933643        25.4057 
 114   0.0000       0.975397        26.5419 
 115   0.0000       1.004216        27.3261 
 116   0.0000       1.025050        27.8930 
 117   0.0000       1.039015        28.2730 
 118   0.0000       1.065618        28.9969 
 119   0.0000       1.104933        30.0667 
 120   0.0000       1.109602        30.1938 
 121   0.0000       1.111629        30.2490 
 122   0.0000       1.146796        31.2059 
 123   0.0000       1.163463        31.6594 
 124   0.0000       1.200319        32.6623 
 125   0.0000       1.229777        33.4639 
 126   0.0000       1.236821        33.6556 
 127   0.0000       1.244297        33.8591 
 128   0.0000       1.260844        34.3093 
 129   0.0000       1.275700        34.7136 
 130   0.0000       1.285253        34.9735 
 131   0.0000       1.302861        35.4527 
 132   0.0000       1.335283        36.3349 
 133   0.0000       1.366377        37.1810 
 134   0.0000       1.414499        38.4905 
 135   0.0000       1.421870        38.6910 
 136   0.0000       1.456964        39.6460 
 137   0.0000       1.493904        40.6512 
 138   0.0000       1.514522        41.2122 
 139   0.0000       1.546252        42.0756 
 140   0.0000       1.565881        42.6098 
 141   0.0000       1.593672        43.3660 
 142   0.0000       1.613842        43.9149 
 143   0.0000       1.641565        44.6693 
 144   0.0000       1.664327        45.2886 
 145   0.0000       1.671212        45.4760 
 146   0.0000       1.699757        46.2527 
 147   0.0000       1.703257        46.3480 
 148   0.0000       1.719960        46.8025 
 149   0.0000       1.726857        46.9902 
 150   0.0000       1.737639        47.2836 
 151   0.0000       1.750145        47.6239 
 152   0.0000       1.755515        47.7700 
 153   0.0000       1.772869        48.2422 
 154   0.0000       1.774729        48.2928 
 155   0.0000       1.786188        48.6047 
 156   0.0000       1.803329        49.0711 
 157   0.0000       1.814466        49.3741 
 158   0.0000       1.842537        50.1380 
 159   0.0000       1.853709        50.4420 
 160   0.0000       1.893296        51.5192 
 161   0.0000       1.911425        52.0125 
 162   0.0000       1.914706        52.1018 
 163   0.0000       1.948057        53.0093 
 164   0.0000       1.973553        53.7031 
 165   0.0000       1.991832        54.2005 
 166   0.0000       1.994205        54.2651 
 167   0.0000       2.001133        54.4536 
 168   0.0000       2.036458        55.4148 
 169   0.0000       2.057911        55.9986 
 170   0.0000       2.099168        57.1213 
 171   0.0000       2.116694        57.5982 
 172   0.0000       2.135047        58.0976 
 173   0.0000       2.146801        58.4174 
 174   0.0000       2.168744        59.0145 
 175   0.0000       2.190455        59.6053 
 176   0.0000       2.243742        61.0553 
 177   0.0000       2.269645        61.7602 
 178   0.0000       2.278374        61.9977 
 179   0.0000       2.291784        62.3626 
 180   0.0000       2.305117        62.7254 
 181   0.0000       2.323507        63.2258 
 182   0.0000       2.361497        64.2596 
 183   0.0000       2.384901        64.8965 
 184   0.0000       2.469855        67.2082 
 185   0.0000       2.481236        67.5179 
 186   0.0000       2.489172        67.7338 
 187   0.0000       2.514715        68.4289 
 188   0.0000       2.561567        69.7038 
 189   0.0000       2.593569        70.5746 
 190   0.0000       2.618031        71.2403 
 191   0.0000       2.637421        71.7679 
 192   0.0000       2.649922        72.1080 
 193   0.0000       2.658024        72.3285 
 194   0.0000       2.689428        73.1831 
 195   0.0000       2.702046        73.5264 
 196   0.0000       2.725716        74.1705 
 197   0.0000       2.748337        74.7860 
 198   0.0000       2.808845        76.4326 
 199   0.0000       2.833534        77.1044 
 200   0.0000       2.841931        77.3329 
 201   0.0000       2.848013        77.4984 
 202   0.0000       2.868535        78.0568 
 203   0.0000       2.909223        79.1640 
 204   0.0000       2.942650        80.0736 
 205   0.0000       2.953044        80.3564 
 206   0.0000       2.980235        81.0963 
 207   0.0000       3.032442        82.5170 
 208   0.0000       3.060618        83.2837 
 209   0.0000       3.090921        84.1082 
 210   0.0000       3.120152        84.9036 
 211   0.0000       3.167193        86.1837 
 212   0.0000       3.194526        86.9275 
 213   0.0000       3.274064        89.0918 
 214   0.0000       3.304844        89.9294 
 215   0.0000       3.371602        91.7460 
 216   0.0000       3.457250        94.0766 
 217   0.0000       3.538372        96.2840 
 218   0.0000       3.613869        98.3384 
 219   0.0000       3.624037        98.6150 
 220   0.0000       3.680198       100.1433 
 221   0.0000       3.777145       102.7813 

                    ********************************
                    * MULLIKEN POPULATION ANALYSIS *
                    ********************************

-----------------------
MULLIKEN ATOMIC CHARGES
-----------------------
   0 C :    0.060537
   1 C :    0.168664
   2 O :   -0.275931
   3 O :   -0.289700
   4 C :    0.185150
   5 C :   -0.005525
   6 C :    0.021759
   7 C :    0.021742
   8 C :   -0.007105
   9 C :   -0.082750
  10 C :    0.204282
  11 O :   -0.198995
  12 O :   -0.251144
  13 H :    0.049887
  14 H :    0.045113
  15 H :    0.074205
  16 H :    0.002488
  17 H :    0.016883
  18 H :    0.013441
  19 H :    0.013533
  20 H :    0.233464
Sum of atomic charges:   -0.0000000

--------------------------------
MULLIKEN REDUCED ORBITAL CHARGES
--------------------------------
  0 C s       :     2.932690  s :     2.932690
      pz      :     1.019382  p :     2.982022
      px      :     0.935128
      py      :     1.027512
      dz2     :     0.006932  d :     0.024750
      dxz     :     0.002654
      dyz     :     0.003961
      dx2y2   :     0.007590
      dxy     :     0.003613
  1 C s       :     3.096227  s :     3.096227
      pz      :     0.818010  p :     2.609974
      px      :     1.006770
      py      :     0.785195
      dz2     :     0.033028  d :     0.125134
      dxz     :     0.031316
      dyz     :     0.024167
      dx2y2   :     0.019905
      dxy     :     0.016718
  2 O s       :     3.757282  s :     3.757282
      pz      :     1.387471  p :     4.501319
      px      :     1.671381
      py      :     1.442466
      dz2     :     0.005146  d :     0.017330
      dxz     :     0.004368
      dyz     :     0.004215
      dx2y2   :     0.001582
      dxy     :     0.002020
  3 O s       :     3.741949  s :     3.741949
      pz      :     1.565693  p :     4.531337
      px      :     1.311020
      py      :     1.654624
      dz2     :     0.003484  d :     0.016414
      dxz     :     0.003496
      dyz     :     0.003174
      dx2y2   :     0.004165
      dxy     :     0.002094
  4 C s       :     3.004100  s :     3.004100
      pz      :     1.006641  p :     2.742312
      px      :     0.757281
      py      :     0.978390
      dz2     :     0.005769  d :     0.068437
      dxz     :     0.011671
      dyz     :     0.007138
      dx2y2   :     0.023754
      dxy     :     0.020106
  5 C s       :     3.280702  s :     3.280702
      pz      :     0.982860  p :     2.691522
      px      :     0.836683
      py      :     0.871979
      dz2     :     0.002818  d :     0.033300
      dxz     :     0.005056
      dyz     :     0.004027
      dx2y2   :     0.009560
      dxy     :     0.011840
  6 C s       :     3.176514  s :     3.176514
      pz      :     0.953513  p :     2.766595
      px      :     0.933960
      py      :     0.879122
      dz2     :     0.002554  d :     0.035132
      dxz     :     0.005962
      dyz     :     0.003344
      dx2y2   :     0.011627
      dxy     :     0.011646
  7 C s       :     3.175059  s :     3.175059
      pz      :     0.974914  p :     2.768580
      px      :     0.843607
      py      :     0.950060
      dz2     :     0.002829  d :     0.034619
      dxz     :     0.002871
      dyz     :     0.005869
      dx2y2   :     0.012404
      dxy     :     0.010645
  8 C s       :     3.249812  s :     3.249812
      pz      :     0.964379  p :     2.722511
      px      :     0.903236
      py      :     0.854896
      dz2     :     0.002833  d :     0.034781
      dxz     :     0.005727
      dyz     :     0.003892
      dx2y2   :     0.010970
      dxy     :     0.011359
  9 C s       :     3.096482  s :     3.096482
      pz      :     1.040986  p :     2.947646
      px      :     0.925967
      py      :     0.980694
      dz2     :     0.003442  d :     0.038622
      dxz     :     0.006792
      dyz     :     0.004694
      dx2y2   :     0.010608
      dxy     :     0.013084
 10 C s       :     3.055961  s :     3.055961
      pz      :     0.855751  p :     2.606473
      px      :     0.837495
      py      :     0.913227
      dz2     :     0.029935  d :     0.133285
      dxz     :     0.019834
      dyz     :     0.037772
      dx2y2   :     0.019065
      dxy     :     0.026679
 11 O s       :     3.675135  s :     3.675135
      pz      :     1.282491  p :     4.511210
      px      :     1.648700
      py      :     1.580018
      dz2     :     0.001269  d :     0.012650
      dxz     :     0.001194
      dyz     :     0.004920
      dx2y2   :     0.002404
      dxy     :     0.002863
 12 O s       :     3.732003  s :     3.732003
      pz      :     1.390533  p :     4.501542
      px      :     1.364006
      py      :     1.747003
      dz2     :     0.004976  d :     0.017599
      dxz     :     0.005901
      dyz     :     0.002421
      dx2y2   :     0.002567
      dxy     :     0.001734
 13 H s       :     0.926188  s :     0.926188
      pz      :     0.006290  p :     0.023924
      px      :     0.005182
      py      :     0.012453
 14 H s       :     0.930915  s :     0.930915
      pz      :     0.014639  p :     0.023972
      px      :     0.004398
      py      :     0.004935
 15 H s       :     0.900671  s :     0.900671
      pz      :     0.007356  p :     0.025124
      px      :     0.006778
      py      :     0.010990
 16 H s       :     0.974141  s :     0.974141
      pz      :     0.004581  p :     0.023371
      px      :     0.007433
      py      :     0.011357
 17 H s       :     0.959990  s :     0.959990
      pz      :     0.004691  p :     0.023128
      px      :     0.005353
      py      :     0.013083
 18 H s       :     0.963381  s :     0.963381
      pz      :     0.004391  p :     0.023177
      px      :     0.015401
      py      :     0.003385
 19 H s       :     0.963015  s :     0.963015
      pz      :     0.004751  p :     0.023452
      px      :     0.007788
      py      :     0.010913
 20 H s       :     0.700045  s :     0.700045
      pz      :     0.032260  p :     0.066490
      px      :     0.019480
      py      :     0.014750


                     *******************************
                     * LOEWDIN POPULATION ANALYSIS *
                     *******************************

----------------------
LOEWDIN ATOMIC CHARGES
----------------------
   0 C :   -0.065031
   1 C :    0.133205
   2 O :   -0.209912
   3 O :   -0.080811
   4 C :    0.060197
   5 C :   -0.024038
   6 C :   -0.004173
   7 C :   -0.019532
   8 C :   -0.003909
   9 C :   -0.093531
  10 C :    0.092647
  11 O :   -0.038320
  12 O :   -0.204998
  13 H :    0.050409
  14 H :    0.046114
  15 H :    0.063150
  16 H :    0.044627
  17 H :    0.041767
  18 H :    0.040368
  19 H :    0.043370
  20 H :    0.128401

-------------------------------
LOEWDIN REDUCED ORBITAL CHARGES
-------------------------------
  0 C s       :     2.839742  s :     2.839742
      pz      :     1.075358  p :     3.157746
      px      :     1.008106
      py      :     1.074282
      dz2     :     0.018689  d :     0.067543
      dxz     :     0.007770
      dyz     :     0.009510
      dx2y2   :     0.021473
      dxy     :     0.010100
  1 C s       :     2.866737  s :     2.866737
      pz      :     0.903778  p :     2.727617
      px      :     1.013478
      py      :     0.810361
      dz2     :     0.071033  d :     0.272441
      dxz     :     0.069278
      dyz     :     0.056708
      dx2y2   :     0.042861
      dxy     :     0.032561
  2 O s       :     3.558981  s :     3.558981
      pz      :     1.469379  p :     4.621407
      px      :     1.692889
      py      :     1.459139
      dz2     :     0.007869  d :     0.029524
      dxz     :     0.008626
      dyz     :     0.007507
      dx2y2   :     0.002295
      dxy     :     0.003227
  3 O s       :     3.463338  s :     3.463338
      pz      :     1.591704  p :     4.586132
      px      :     1.344990
      py      :     1.649438
      dz2     :     0.005747  d :     0.031340
      dxz     :     0.007236
      dyz     :     0.005725
      dx2y2   :     0.007998
      dxy     :     0.004634
  4 C s       :     2.845059  s :     2.845059
      pz      :     0.995102  p :     2.933406
      px      :     0.851161
      py      :     1.087143
      dz2     :     0.012933  d :     0.161338
      dxz     :     0.023204
      dyz     :     0.014934
      dx2y2   :     0.058553
      dxy     :     0.051714
  5 C s       :     2.865632  s :     2.865632
      pz      :     0.973880  p :     3.070573
      px      :     1.060217
      py      :     1.036476
      dz2     :     0.006852  d :     0.087833
      dxz     :     0.010771
      dyz     :     0.008380
      dx2y2   :     0.028267
      dxy     :     0.033562
  6 C s       :     2.862973  s :     2.862973
      pz      :     0.945058  p :     3.050844
      px      :     1.058423
      py      :     1.047363
      dz2     :     0.006097  d :     0.090355
      dxz     :     0.012910
      dyz     :     0.006538
      dx2y2   :     0.032360
      dxy     :     0.032450
  7 C s       :     2.861754  s :     2.861754
      pz      :     0.964476  p :     3.068004
      px      :     1.045433
      py      :     1.058096
      dz2     :     0.006744  d :     0.089773
      dxz     :     0.005297
      dyz     :     0.013247
      dx2y2   :     0.034202
      dxy     :     0.030283
  8 C s       :     2.860123  s :     2.860123
      pz      :     0.959825  p :     3.052725
      px      :     1.037283
      py      :     1.055617
      dz2     :     0.006507  d :     0.091061
      dxz     :     0.012600
      dyz     :     0.008050
      dx2y2   :     0.030958
      dxy     :     0.032946
  9 C s       :     2.861044  s :     2.861044
      pz      :     1.013397  p :     3.127814
      px      :     1.073933
      py      :     1.040484
      dz2     :     0.008671  d :     0.104673
      dxz     :     0.014594
      dyz     :     0.010708
      dx2y2   :     0.032327
      dxy     :     0.038373
 10 C s       :     2.847830  s :     2.847830
      pz      :     0.911454  p :     2.763307
      px      :     0.883533
      py      :     0.968320
      dz2     :     0.060697  d :     0.296217
      dxz     :     0.046618
      dyz     :     0.086330
      dx2y2   :     0.041402
      dxy     :     0.061170
 11 O s       :     3.420466  s :     3.420466
      pz      :     1.343355  p :     4.592760
      px      :     1.634439
      py      :     1.614966
      dz2     :     0.003346  d :     0.025094
      dxz     :     0.003604
      dyz     :     0.010290
      dx2y2   :     0.003741
      dxy     :     0.004113
 12 O s       :     3.550422  s :     3.550422
      pz      :     1.459213  p :     4.624748
      px      :     1.420390
      py      :     1.745146
      dz2     :     0.006960  d :     0.029827
      dxz     :     0.012442
      dyz     :     0.003723
      dx2y2   :     0.003961
      dxy     :     0.002742
 13 H s       :     0.882985  s :     0.882985
      pz      :     0.016464  p :     0.066606
      px      :     0.015522
      py      :     0.034620
 14 H s       :     0.886455  s :     0.886455
      pz      :     0.041356  p :     0.067431
      px      :     0.013550
      py      :     0.012525
 15 H s       :     0.868528  s :     0.868528
      pz      :     0.019096  p :     0.068322
      px      :     0.019071
      py      :     0.030155
 16 H s       :     0.885683  s :     0.885683
      pz      :     0.014663  p :     0.069691
      px      :     0.022011
      py      :     0.033017
 17 H s       :     0.889959  s :     0.889959
      pz      :     0.014533  p :     0.068274
      px      :     0.016376
      py      :     0.037366
 18 H s       :     0.891151  s :     0.891151
      pz      :     0.013823  p :     0.068481
      px      :     0.043442
      py      :     0.011215
 19 H s       :     0.886954  s :     0.886954
      pz      :     0.014737  p :     0.069675
      px      :     0.022955
      py      :     0.031983
 20 H s       :     0.699858  s :     0.699858
      pz      :     0.077921  p :     0.171742
      px      :     0.051870
      py      :     0.041950


                      *****************************
                      * MAYER POPULATION ANALYSIS *
                      *****************************

  NA   - Mulliken gross atomic population
  ZA   - Total nuclear charge
  QA   - Mulliken gross atomic charge
  VA   - Mayer's total valence
  BVA  - Mayer's bonded valence
  FA   - Mayer's free valence

  ATOM       NA         ZA         QA         VA         BVA        FA
  0 C      5.9395     6.0000     0.0605     3.8922     3.8922    -0.0000
  1 C      5.8313     6.0000     0.1687     4.3046     4.3046    -0.0000
  2 O      8.2759     8.0000    -0.2759     2.2095     2.2095    -0.0000
  3 O      8.2897     8.0000    -0.2897     2.1721     2.1721    -0.0000
  4 C      5.8148     6.0000     0.1852     4.0050     4.0050    -0.0000
  5 C      6.0055     6.0000    -0.0055     3.8480     3.8480    -0.0000
  6 C      5.9782     6.0000     0.0218     3.7901     3.7901     0.0000
  7 C      5.9783     6.0000     0.0217     3.8091     3.8091    -0.0000
  8 C      6.0071     6.0000    -0.0071     3.8772     3.8772    -0.0000
  9 C      6.0827     6.0000    -0.0827     3.7169     3.7169     0.0000
 10 C      5.7957     6.0000     0.2043     4.3342     4.3342    -0.0000
 11 O      8.1990     8.0000    -0.1990     2.2588     2.2588    -0.0000
 12 O      8.2511     8.0000    -0.2511     2.2549     2.2549    -0.0000
 13 H      0.9501     1.0000     0.0499     1.0072     1.0072    -0.0000
 14 H      0.9549     1.0000     0.0451     1.0069     1.0069    -0.0000
 15 H      0.9258     1.0000     0.0742     0.9983     0.9983    -0.0000
 16 H      0.9975     1.0000     0.0025     0.9939     0.9939    -0.0000
 17 H      0.9831     1.0000     0.0169     0.9799     0.9799    -0.0000
 18 H      0.9866     1.0000     0.0134     0.9801     0.9801    -0.0000
 19 H      0.9865     1.0000     0.0135     0.9955     0.9955    -0.0000
 20 H      0.7665     1.0000     0.2335     0.9916     0.9916    -0.0000

  Mayer bond orders larger than 0.100000
B(  0-C ,  1-C ) :   1.0605 B(  0-C , 13-H ) :   0.9523 B(  0-C , 14-H ) :   0.9494 
B(  0-C , 15-H ) :   0.9365 B(  1-C ,  2-O ) :   2.0281 B(  1-C ,  3-O ) :   1.0694 
B(  3-O ,  4-C ) :   0.9880 B(  4-C ,  5-C ) :   1.4083 B(  4-C ,  9-C ) :   1.3930 
B(  5-C ,  6-C ) :   1.3437 B(  5-C , 16-H ) :   0.9990 B(  6-C ,  7-C ) :   1.3725 
B(  6-C , 17-H ) :   0.9887 B(  7-C ,  8-C ) :   1.3730 B(  7-C , 18-H ) :   0.9918 
B(  8-C ,  9-C ) :   1.3606 B(  8-C , 19-H ) :   0.9934 B(  9-C , 10-C ) :   0.9051 
B( 10-C , 11-O ) :   1.2373 B( 10-C , 12-O ) :   2.1128 B( 11-O , 20-H ) :   0.9247 


-------
TIMINGS
-------

Total SCF time: 0 days 0 hours 1 min 7 sec 

Total time                  ....      67.960 sec
Sum of individual times     ....      67.760 sec  ( 99.7%)

Fock matrix formation       ....      65.810 sec  ( 96.8%)
  Split-RI-J                ....       3.261 sec  (  5.0% of F)
  Chain of spheres X        ....      49.581 sec  ( 75.3% of F)
  XC integration            ....       7.065 sec  ( 10.7% of F)
    Basis function eval.    ....       2.581 sec  ( 36.5% of XC)
    Density eval.           ....       2.112 sec  ( 29.9% of XC)
    XC-Functional eval.     ....       0.304 sec  (  4.3% of XC)
    XC-Potential eval.      ....       1.819 sec  ( 25.7% of XC)
Diagonalization             ....       0.037 sec  (  0.1%)
Density matrix formation    ....       0.006 sec  (  0.0%)
Population analysis         ....       0.008 sec  (  0.0%)
Initial guess               ....       0.330 sec  (  0.5%)
Orbital Transformation      ....       0.000 sec  (  0.0%)
Orbital Orthonormalization  ....       0.000 sec  (  0.0%)
DIIS solution               ....       0.039 sec  (  0.1%)
SOSCF solution              ....       0.047 sec  (  0.1%)
Grid generation             ....       1.483 sec  (  2.2%)

Maximum memory used throughout the entire SCF-calculation: 90.6 MB

-------------------------   --------------------
FINAL SINGLE POINT ENERGY      -647.877001588307
-------------------------   --------------------


                            ***************************************
                            *     ORCA property calculations      *
                            ***************************************

                                    ---------------------
                                    Active property flags
                                    ---------------------
   (+) Dipole Moment


------------------------------------------------------------------------------
                       ORCA ELECTRIC PROPERTIES CALCULATION
------------------------------------------------------------------------------

Dipole Moment Calculation                       ... on
Quadrupole Moment Calculation                   ... off
Polarizability Calculation                      ... off
GBWName                                         ... aspirin_acetone.gbw
Electron density                                ... aspirin_acetone.scfp
The origin for moment calculation is the CENTER OF MASS  = ( 8.597723,  0.321204 -0.821841)

-------------
DIPOLE MOMENT
-------------
                                X             Y             Z
Electronic contribution:      1.91882      -2.62731      -1.45346
Nuclear contribution   :     -1.01279       4.01313       2.34239
                        -----------------------------------------
Total Dipole Moment    :      0.90603       1.38583       0.88894
                        -----------------------------------------
Magnitude (a.u.)       :      1.87926
Magnitude (Debye)      :      4.77670



--------------------
Rotational spectrum 
--------------------
 
Rotational constants in cm-1:     0.038272     0.024987     0.018044 
Rotational constants in MHz :  1147.353171   749.103458   540.948020 

 Dipole components along the rotational axes: 
x,y,z [a.u.] :     1.189027     1.269312     0.711813 
x,y,z [Debye]:     3.022267     3.226335     1.809284 

 

-------------------------------------------------------------------------------
                               ORCA SCF HESSIAN
-------------------------------------------------------------------------------

                   --------- SHARK INITIALIZATION DONE ---------

Hessian of the Kohn-Sham DFT energy:
Kohn-Sham wavefunction type                      ... RKS
Hartree-Fock exchange scaling                    ...    0.200
Number of operators                              ...    1
Number of atoms                                  ...   21
Basis set dimensions                             ...  222
Integral neglect threshold                       ... 2.5e-11
Integral primitive cutoff                        ... 2.5e-12

Setting up DFT Hessian calculations              ... 

HESS GRID
---------

General Integration Accuracy     IntAcc      ... 4.629
Radial Grid Type                 RadialGrid  ... OptM3 with GC (2021)
Angular Grid (max. ang.)         AngularGrid ... 5 (Lebedev-434)
Angular grid pruning method      GridPruning ... 4 (adaptive)
Weight generation scheme         WeightScheme... Becke
Basis function cutoff            BFCut       ... 1.0000e-11
Integration weight cutoff        WCut        ... 1.0000e-14
Angular grids for H and He will be reduced by one unit
Partially contracted basis set               ... off
Rotationally invariant grid construction     ... off

Total number of grid points                  ...   161677
Total number of batches                      ...     2536
Average number of points per batch           ...       63
Average number of grid points per atom       ...     7699

Building densities                               ... done   (      0.0 sec)
Calculating rho(r) on the grid                   ... done   (      0.6 sec)
Building xc-kernel on the grid                   ... done   (      0.1 sec)
                                                     done   (      2.0 sec)

Nuclear repulsion Hessian  (SHARK)               ... done   (      0.0 sec)

----------------------------------------------
Forming right-hand sides of CP-SCF equations     ...
----------------------------------------------
One electron integral derivatives  (SHARK)       ... done   (      0.1 sec)
C-PCM contribution to the Fock matrix derivative ... done   (      8.2 sec)
Transforming the overlap derivative matrices     ... done   (      3.7 sec)
Adding tr(S(x)F(y) C-PCM term to the hessian     ... done   (      0.0 sec)
Making the Q(x) pseudodensities                  ... done   (      0.1 sec)
Adding the E*S(x)*S(y) terms to the Hessian      ... done   (      0.0 sec)
Calculating energy weighted overlap derivatives  ... done   (      0.0 sec)
Two electron integral derivatives (SHARK-RI)     ... done   (     29.2 sec)
Exchange-correlation integral derivatives        ... done   (     85.2 sec)
tr(F(y)Q(x)) contribution to the Hessian         ... done   (      0.0 sec)
Response fock operator R(S(x)) (SHARK-RIJCOSX)   ... done   (     22.8 sec)
XC Response fock operator R(S(x))                ... done   (     26.6 sec)
tr(F(y)S(x)) contribution to the Hessian         ... done   (      0.0 sec)
Transforming and finalizing RHSs                 ... done   (      0.1 sec)

----------------------------------------------
Solving the CP-SCF equations (RIJCOSX)           ...
----------------------------------------------
     CP-SCF ITERATION   0:   4.4563e-01 (  20.7 sec   0/ 63 done)
     CP-SCF ITERATION   1:   4.3157e-02 (  21.3 sec   0/ 63 done)
     CP-SCF ITERATION   2:   1.8847e-02 (  21.7 sec   0/ 63 done)
     CP-SCF ITERATION   3:   7.2220e-03 (  21.4 sec   0/ 63 done)
     CP-SCF ITERATION   4:   2.9733e-03 (  22.7 sec   1/ 63 done)
     CP-SCF ITERATION   5:   5.8809e-04 (  22.6 sec  18/ 63 done)
     CP-SCF ITERATION   6:   1.9988e-04 (  16.7 sec  39/ 63 done)
     CP-SCF ITERATION   7:   7.0039e-05 (  10.1 sec  63/ 63 done)
                    *** THE CP-SCF HAS CONVERGED ***

                                                 ... done   (    157.6 sec)
Forming perturbed density Hessian contributions  ... done   (      0.0 sec)
Calculating [Q*(d^2 A/dXdY)*Q  ] C-PCM term      ... done   (      0.0 sec)
Calculating [d^2(V_N)/(dXdY)*Q ] C-PCM term      ... done   (      0.0 sec)
Calculating [d^2(V_el)/(dXdY)*Q] C-PCM term      ... done   (      0.9 sec)
Calculating C-PCM term that depends on dQ/dX     ... done   (      0.2 sec)
2nd integral derivative contribs (SHARK-RI)      ... done   (     97.5 sec)
Exchange-correlation Hessian                     ... done   (     61.0 sec)
Dipole derivatives                               ... (center of mass:  8.597723,  0.321204 -0.821841)done   (      0.1 sec)

Total SCF Hessian time: 0 days 0 hours 8 min 18 sec 

Writing the Hessian file to the disk             ... done


Maximum memory used throughout the entire SCFHESS-calculation: 258.0 MB

-----------------------
VIBRATIONAL FREQUENCIES
-----------------------

Scaling factor for frequencies =  1.000000000  (already applied!)

   0:         0.00 cm**-1
   1:         0.00 cm**-1
   2:         0.00 cm**-1
   3:         0.00 cm**-1
   4:         0.00 cm**-1
   5:         0.00 cm**-1
   6:      -256.21 cm**-1 ***imaginary mode***
   7:        49.41 cm**-1
   8:       101.92 cm**-1
   9:       111.29 cm**-1
  10:       115.11 cm**-1
  11:       133.24 cm**-1
  12:       203.92 cm**-1
  13:       266.68 cm**-1
  14:       311.94 cm**-1
  15:       365.29 cm**-1
  16:       396.16 cm**-1
  17:       462.16 cm**-1
  18:       505.65 cm**-1
  19:       549.87 cm**-1
  20:       573.10 cm**-1
  21:       588.33 cm**-1
  22:       612.01 cm**-1
  23:       645.92 cm**-1
  24:       673.36 cm**-1
  25:       735.40 cm**-1
  26:       752.63 cm**-1
  27:       784.24 cm**-1
  28:       807.49 cm**-1
  29:       834.20 cm**-1
  30:       886.21 cm**-1
  31:       907.74 cm**-1
  32:       976.66 cm**-1
  33:      1001.22 cm**-1
  34:      1019.70 cm**-1
  35:      1041.52 cm**-1
  36:      1054.95 cm**-1
  37:      1090.79 cm**-1
  38:      1134.15 cm**-1
  39:      1156.40 cm**-1
  40:      1174.75 cm**-1
  41:      1198.60 cm**-1
  42:      1232.29 cm**-1
  43:      1276.91 cm**-1
  44:      1337.50 cm**-1
  45:      1355.68 cm**-1
  46:      1367.58 cm**-1
  47:      1400.22 cm**-1
  48:      1439.96 cm**-1
  49:      1475.96 cm**-1
  50:      1521.47 cm**-1
  51:      1638.70 cm**-1
  52:      1662.51 cm**-1
  53:      1710.61 cm**-1
  54:      1786.92 cm**-1
  55:      3109.51 cm**-1
  56:      3203.44 cm**-1
  57:      3222.58 cm**-1
  58:      3229.81 cm**-1
  59:      3239.84 cm**-1
  60:      3247.35 cm**-1
  61:      3257.61 cm**-1
  62:      3673.67 cm**-1


------------
NORMAL MODES
------------

These modes are the Cartesian displacements weighted by the diagonal matrix
M(i,i)=1/sqrt(m[i]) where m[i] is the mass of the displaced atom
Thus, these vectors are normalized but *not* orthogonal

                  0          1          2          3          4          5    
      0       0.000000   0.000000   0.000000   0.000000   0.000000   0.000000
      1       0.000000   0.000000   0.000000   0.000000   0.000000   0.000000
      2       0.000000   0.000000   0.000000   0.000000   0.000000   0.000000
      3       0.000000   0.000000   0.000000   0.000000   0.000000   0.000000
      4       0.000000   0.000000   0.000000   0.000000   0.000000   0.000000
      5       0.000000   0.000000   0.000000   0.000000   0.000000   0.000000
      6       0.000000   0.000000   0.000000   0.000000   0.000000   0.000000
      7       0.000000   0.000000   0.000000   0.000000   0.000000   0.000000
      8       0.000000   0.000000   0.000000   0.000000   0.000000   0.000000
      9       0.000000   0.000000   0.000000   0.000000   0.000000   0.000000
     10       0.000000   0.000000   0.000000   0.000000   0.000000   0.000000
     11       0.000000   0.000000   0.000000   0.000000   0.000000   0.000000
     12       0.000000   0.000000   0.000000   0.000000   0.000000   0.000000
     13       0.000000   0.000000   0.000000   0.000000   0.000000   0.000000
     14       0.000000   0.000000   0.000000   0.000000   0.000000   0.000000
     15       0.000000   0.000000   0.000000   0.000000   0.000000   0.000000
     16       0.000000   0.000000   0.000000   0.000000   0.000000   0.000000
     17       0.000000   0.000000   0.000000   0.000000   0.000000   0.000000
     18       0.000000   0.000000   0.000000   0.000000   0.000000   0.000000
     19       0.000000   0.000000   0.000000   0.000000   0.000000   0.000000
     20       0.000000   0.000000   0.000000   0.000000   0.000000   0.000000
     21       0.000000   0.000000   0.000000   0.000000   0.000000   0.000000
     22       0.000000   0.000000   0.000000   0.000000   0.000000   0.000000
     23       0.000000   0.000000   0.000000   0.000000   0.000000   0.000000
     24       0.000000   0.000000   0.000000   0.000000   0.000000   0.000000
     25       0.000000   0.000000   0.000000   0.000000   0.000000   0.000000
     26       0.000000   0.000000   0.000000   0.000000   0.000000   0.000000
     27       0.000000   0.000000   0.000000   0.000000   0.000000   0.000000
     28       0.000000   0.000000   0.000000   0.000000   0.000000   0.000000
     29       0.000000   0.000000   0.000000   0.000000   0.000000   0.000000
     30       0.000000   0.000000   0.000000   0.000000   0.000000   0.000000
     31       0.000000   0.000000   0.000000   0.000000   0.000000   0.000000
     32       0.000000   0.000000   0.000000   0.000000   0.000000   0.000000
     33       0.000000   0.000000   0.000000   0.000000   0.000000   0.000000
     34       0.000000   0.000000   0.000000   0.000000   0.000000   0.000000
     35       0.000000   0.000000   0.000000   0.000000   0.000000   0.000000
     36       0.000000   0.000000   0.000000   0.000000   0.000000   0.000000
     37       0.000000   0.000000   0.000000   0.000000   0.000000   0.000000
     38       0.000000   0.000000   0.000000   0.000000   0.000000   0.000000
     39       0.000000   0.000000   0.000000   0.000000   0.000000   0.000000
     40       0.000000   0.000000   0.000000   0.000000   0.000000   0.000000
     41       0.000000   0.000000   0.000000   0.000000   0.000000   0.000000
     42       0.000000   0.000000   0.000000   0.000000   0.000000   0.000000
     43       0.000000   0.000000   0.000000   0.000000   0.000000   0.000000
     44       0.000000   0.000000   0.000000   0.000000   0.000000   0.000000
     45       0.000000   0.000000   0.000000   0.000000   0.000000   0.000000
     46       0.000000   0.000000   0.000000   0.000000   0.000000   0.000000
     47       0.000000   0.000000   0.000000   0.000000   0.000000   0.000000
     48       0.000000   0.000000   0.000000   0.000000   0.000000   0.000000
     49       0.000000   0.000000   0.000000   0.000000   0.000000   0.000000
     50       0.000000   0.000000   0.000000   0.000000   0.000000   0.000000
     51       0.000000   0.000000   0.000000   0.000000   0.000000   0.000000
     52       0.000000   0.000000   0.000000   0.000000   0.000000   0.000000
     53       0.000000   0.000000   0.000000   0.000000   0.000000   0.000000
     54       0.000000   0.000000   0.000000   0.000000   0.000000   0.000000
     55       0.000000   0.000000   0.000000   0.000000   0.000000   0.000000
     56       0.000000   0.000000   0.000000   0.000000   0.000000   0.000000
     57       0.000000   0.000000   0.000000   0.000000   0.000000   0.000000
     58       0.000000   0.000000   0.000000   0.000000   0.000000   0.000000
     59       0.000000   0.000000   0.000000   0.000000   0.000000   0.000000
     60       0.000000   0.000000   0.000000   0.000000   0.000000   0.000000
     61       0.000000   0.000000   0.000000   0.000000   0.000000   0.000000
     62       0.000000   0.000000   0.000000   0.000000   0.000000   0.000000
                  6          7          8          9         10         11    
      0      -0.003941   0.073348   0.066842  -0.056184  -0.029338   0.057925
      1      -0.000701  -0.302747  -0.154185   0.000060  -0.082664  -0.032525
      2       0.004372  -0.184034   0.101448  -0.160191  -0.065601   0.034758
      3      -0.000955   0.034990   0.064813  -0.080912  -0.062888   0.070981
      4       0.008155  -0.044569   0.036680   0.034691   0.156556   0.038440
      5      -0.008416  -0.017249   0.040172   0.005853   0.102192  -0.105013
      6      -0.005181   0.017974   0.132726  -0.156672  -0.111653   0.162229
      7       0.010810   0.021811   0.165041   0.023766   0.423125   0.082811
      8      -0.003407   0.026472   0.063305   0.045963   0.264280  -0.136907
      9       0.002080   0.026306  -0.025699  -0.007200  -0.018136  -0.013931
     10      -0.000287   0.067669   0.001818   0.081982  -0.038286   0.023288
     11      -0.008962   0.057118  -0.047051   0.085332  -0.007295  -0.164715
     12       0.002401   0.026689  -0.025051  -0.007963  -0.015154  -0.014636
     13      -0.000931   0.054549   0.020491   0.020375  -0.057224   0.023273
     14      -0.004741   0.044416  -0.089607   0.093675   0.029109  -0.147066
     15       0.001064   0.068025  -0.020430   0.041547  -0.018920  -0.025477
     16       0.000068   0.036203   0.037641   0.027937  -0.085767  -0.018977
     17      -0.007383   0.036884  -0.192030  -0.043425   0.173729   0.068118
     18       0.000877   0.076392  -0.024592   0.050216  -0.020617  -0.034992
     19       0.000111  -0.004781   0.004171   0.009768  -0.069962  -0.058399
     20      -0.005249  -0.021596  -0.055737  -0.135454   0.141008   0.257438
[...]
     11       0.004021   0.000073   0.000364  -0.000019   0.000021   0.000001
     12      -0.037651   0.000099  -0.000166  -0.000164  -0.000086  -0.000630
     13      -0.021073   0.000017   0.000018   0.000010  -0.000495  -0.000146
     14      -0.011667  -0.000080   0.000126  -0.000011  -0.000096  -0.000021
     15       0.020410  -0.000023   0.000051   0.000055  -0.005567  -0.010010
     16       0.007637  -0.000002   0.000017  -0.000055   0.010108   0.017869
     17       0.000747   0.000003   0.000038  -0.000004   0.001780   0.003120
     18      -0.011167   0.000002   0.000002   0.000042  -0.020277  -0.023829
     19       0.000408  -0.000000   0.000042   0.000105  -0.039955  -0.054053
     20      -0.000014   0.000011   0.000043   0.000031  -0.008734  -0.011696
     21       0.002817  -0.000003   0.000013  -0.000031   0.061166  -0.015865
     22      -0.003117   0.000011  -0.000015   0.000004   0.006235   0.002635
     23      -0.002953   0.000007   0.000017   0.000007   0.003224   0.000023
     24      -0.024894  -0.000007   0.000010   0.000025  -0.022546   0.034831
     25      -0.006207   0.000001   0.000008  -0.000044   0.026772  -0.045103
     26      -0.000461   0.000009  -0.000007  -0.000009   0.005623  -0.009493
     27       0.088467   0.000009   0.000012   0.000029   0.001121  -0.002125
     28       0.089224   0.000017  -0.000006  -0.000005   0.000260  -0.000235
     29       0.044012  -0.000007  -0.000004   0.000004   0.000091  -0.000166
     30      -0.480966   0.000009  -0.000013   0.000002  -0.000194   0.000247
     31      -0.193101   0.000002   0.000031   0.000018   0.000148  -0.000414
     32      -0.539359   0.000012  -0.000046  -0.000002  -0.000057   0.000063
     33       0.027434   0.000002  -0.000002   0.000003   0.000143  -0.000197
     34       0.034884   0.000008  -0.000016  -0.000005  -0.000010   0.000107
     35       0.035653   0.000005  -0.000050  -0.000006   0.000040  -0.000017
     36       0.290005   0.000000   0.000008   0.000003   0.000011   0.000039
     37       0.082669  -0.000004   0.000026  -0.000002  -0.000034   0.000105
     38       0.334918  -0.000004  -0.000028  -0.000008  -0.000022   0.000055
     39      -0.003960  -0.191632  -0.232835  -0.161197  -0.000278  -0.000169
     40       0.001691  -0.492904  -0.583862  -0.391062  -0.000583  -0.000391
     41      -0.002427   0.215526   0.246007   0.180126   0.000250   0.000172
     42       0.014473  -0.119837   0.149984  -0.064449  -0.000044   0.000015
     43      -0.005962   0.020181  -0.018740   0.020766   0.000022   0.000013
     44      -0.001409  -0.598412   0.707762  -0.298135  -0.000260   0.000072
     45       0.001207  -0.238335  -0.047119   0.372174   0.000483   0.000233
     46      -0.001741   0.420935   0.089673  -0.633954  -0.000843  -0.000372
     47       0.003809   0.253998   0.038826  -0.381914  -0.000501  -0.000233
     48      -0.030951   0.000134   0.000002  -0.000501   0.081856   0.142061
     49      -0.024224  -0.000196  -0.000098   0.000652  -0.114276  -0.199178
     50      -0.005626  -0.000066   0.000090   0.000110  -0.019125  -0.033302
     51       0.003053  -0.000000  -0.000147  -0.000502   0.220686   0.280291
     52      -0.006762   0.000011  -0.000404  -0.001126   0.475292   0.609217
     53       0.002001  -0.000007  -0.000003  -0.000232   0.102991   0.131822
     54       0.005105   0.000001  -0.000068   0.000403  -0.712833   0.174769
     55      -0.002895   0.000011  -0.000015   0.000047  -0.068693   0.013455
     56      -0.001526  -0.000000   0.000020   0.000027  -0.036498   0.008386
     57       0.029081   0.000019   0.000040  -0.000320   0.246882  -0.389277
     58       0.036968  -0.000001  -0.000020   0.000472  -0.327727   0.519419
     59       0.016488   0.000019  -0.000025   0.000101  -0.069668   0.110293
     60       0.084757  -0.000032   0.000063  -0.000002  -0.000709   0.000826
     61      -0.419374  -0.000000   0.000013   0.000042  -0.000507   0.000228
     62       0.156512  -0.000055   0.000043   0.000001   0.000245  -0.000966
                 60         61         62    
      0      -0.000021  -0.000015  -0.000020
      1       0.000050   0.000003  -0.000001
      2       0.000021  -0.000001  -0.000001
      3       0.000097   0.000110   0.000125
      4       0.000056  -0.000019   0.000032
      5      -0.000090   0.000103  -0.000130
      6      -0.000006  -0.000008  -0.000014
      7      -0.000022   0.000006   0.000039
      8       0.000037  -0.000025   0.000084
      9      -0.000031   0.000307  -0.000115
     10       0.000026   0.000205  -0.000014
     11       0.000049  -0.000009   0.000022
     12      -0.000261  -0.002369   0.000255
     13      -0.001257  -0.003582  -0.000167
     14      -0.000266  -0.000747  -0.000062
     15      -0.014188  -0.047792   0.000058
     16       0.022051   0.064365   0.000056
     17       0.003761   0.010686   0.000005
     18      -0.008604   0.016641  -0.000035
     19      -0.026788   0.030172   0.000079
     20      -0.005648   0.006674  -0.000031
     21      -0.058644   0.014811  -0.000052
     22      -0.006704   0.000142  -0.000025
     23      -0.003276   0.000498   0.000004
     24      -0.030893   0.004506  -0.000060
     25       0.045084  -0.007361   0.000226
     26       0.009539  -0.001555  -0.000165
     27       0.002713   0.000007  -0.000131
     28       0.000137  -0.000251   0.000368
     29       0.000178  -0.000077  -0.000105
     30      -0.000219  -0.000072   0.001218
     31       0.000472  -0.000208   0.000869
     32      -0.000026  -0.000053   0.001669
     33       0.000165   0.000003   0.026822
     34      -0.000142   0.000097   0.020592
     35       0.000006   0.000017   0.052876
     36      -0.000063   0.000067  -0.000998
     37      -0.000131   0.000054   0.000007
     38      -0.000089   0.000049  -0.001273
     39      -0.000168   0.000142  -0.000079
     40      -0.000347   0.000081  -0.000036
     41       0.000133  -0.000058   0.000001
     42      -0.000012  -0.000077   0.000043
     43      -0.000005   0.000004  -0.000062
     44      -0.000071  -0.000124   0.000102
     45       0.000279   0.000263  -0.000032
     46      -0.000512  -0.000259  -0.000038
     47      -0.000301  -0.000179  -0.000040
     48       0.177789   0.527258  -0.000148
     49      -0.247396  -0.725502   0.000503
     50      -0.041294  -0.120816   0.000135
     51       0.126314  -0.155526   0.000006
     52       0.280960  -0.332755   0.000084
     53       0.060652  -0.072103  -0.000024
     54       0.645735  -0.154381   0.000637
     55       0.062918  -0.013475   0.000208
     56       0.033064  -0.007598   0.000022
     57       0.360484  -0.054558  -0.000069
     58      -0.485989   0.074473  -0.000427
     59      -0.103149   0.015828  -0.000063
     60      -0.000475  -0.000102  -0.424355
     61       0.000193  -0.000399  -0.344706
     62       0.000953  -0.000475  -0.834956


-----------
IR SPECTRUM
-----------

 Mode   freq       eps      Int      T**2         TX        TY        TZ
       cm**-1   L/(mol*cm) km/mol    a.u.
----------------------------------------------------------------------------
  7:     49.41   0.001204    6.08  0.007601  ( 0.029481 -0.066031 -0.048696)
  8:    101.92   0.001082    5.47  0.003312  (-0.019993 -0.046930  0.026648)
  9:    111.29   0.000830    4.19  0.002327  ( 0.029154 -0.015830 -0.035023)
 10:    115.11   0.000315    1.59  0.000854  ( 0.001486 -0.023510 -0.017281)
 11:    133.24   0.000509    2.57  0.001192  ( 0.028388  0.019535 -0.002234)
 12:    203.92   0.002764   13.97  0.004229  (-0.053205  0.027489  0.025359)
 13:    266.68   0.002150   10.87  0.002516  (-0.032354 -0.030623  0.023053)
 14:    311.94   0.000336    1.70  0.000336  (-0.006779  0.013148 -0.010813)
 15:    365.29   0.002063   10.42  0.001762  ( 0.033970 -0.024538  0.002433)
 16:    396.16   0.001763    8.91  0.001389  ( 0.024765  0.027386 -0.005063)
 17:    462.16   0.000743    3.75  0.000501  (-0.000915  0.020732  0.008414)
 18:    505.65   0.004159   21.02  0.002567  ( 0.006358 -0.012151  0.048774)
 19:    549.87   0.002240   11.32  0.001272  (-0.031657  0.016385 -0.000910)
 20:    573.10   0.034141  172.54  0.018590  ( 0.127922 -0.008417 -0.046427)
 21:    588.33   0.003384   17.10  0.001795  ( 0.026888  0.024887 -0.021280)
 22:    612.01   0.002000   10.11  0.001020  ( 0.015923  0.021267  0.017722)
 23:    645.92   0.001639    8.28  0.000792  ( 0.003454  0.021133  0.018262)
 24:    673.36   0.001485    7.51  0.000688  ( 0.017777  0.019221 -0.001686)
 25:    735.40   0.010362   52.36  0.004397  ( 0.000829  0.013583 -0.064898)
 26:    752.63   0.000718    3.63  0.000298  ( 0.013632  0.004719  0.009470)
 27:    784.24   0.000612    3.09  0.000243  ( 0.008692  0.006671  0.011107)
 28:    807.49   0.000568    2.87  0.000219  (-0.004653  0.001119 -0.014018)
 29:    834.20   0.013845   69.97  0.005179  (-0.012323 -0.039508  0.058876)
 30:    886.21   0.007479   37.80  0.002634  ( 0.048187  0.016391 -0.006550)
 31:    907.74   0.015158   76.60  0.005211  (-0.056358 -0.023141  0.038723)
 32:    976.66   0.001549    7.83  0.000495  ( 0.008147  0.012359 -0.016605)
 33:   1001.22   0.004148   20.96  0.001293  ( 0.033693  0.007386 -0.010157)
 34:   1019.70   0.000029    0.14  0.000009  (-0.001814 -0.001433 -0.001853)
 35:   1041.52   0.004112   20.78  0.001232  (-0.014316  0.029067  0.013504)
 36:   1054.95   0.001780    9.00  0.000527  (-0.015944 -0.016260 -0.002823)
 37:   1090.79   0.018766   94.84  0.005369  ( 0.061600 -0.039572  0.002898)
 38:   1134.15   0.000347    1.75  0.000095  ( 0.005875  0.006428 -0.004434)
 39:   1156.40   0.000779    3.93  0.000210  (-0.012577  0.001092  0.007123)
 40:   1174.75   0.126031  636.91  0.033479  ( 0.167685  0.038964 -0.061988)
 41:   1198.60   0.068324  345.28  0.017789  ( 0.036189  0.097077 -0.083994)
 42:   1232.29   0.006427   32.48  0.001627  ( 0.000140 -0.034147  0.021481)
 43:   1276.91   0.005662   28.61  0.001384  ( 0.017192 -0.025028  0.021488)
 44:   1337.50   0.100811  509.46  0.023521  ( 0.002202  0.139801 -0.063024)
 45:   1355.68   0.019086   96.45  0.004393  (-0.055069 -0.023684  0.028282)
 46:   1367.58   0.007289   36.84  0.001663  (-0.004584  0.039075 -0.010747)
 47:   1400.22   0.007720   39.02  0.001721  ( 0.038766 -0.005763  0.013585)
 48:   1439.96   0.003690   18.65  0.000800  (-0.010625 -0.026112 -0.002203)
 49:   1475.96   0.006304   31.86  0.001333  ( 0.035082  0.001397 -0.010014)
 50:   1521.47   0.010061   50.84  0.002064  (-0.040878  0.018940 -0.005820)
 51:   1638.70   0.002682   13.55  0.000511  ( 0.010372 -0.001250 -0.020041)
 52:   1662.51   0.008054   40.70  0.001512  ( 0.009021  0.037698 -0.003058)
 53:   1710.61   0.067106  339.12  0.012242  (-0.047094  0.052747 -0.085099)
 54:   1786.92   0.120807  610.51  0.021097  (-0.091880 -0.054468 -0.098431)
 55:   3109.51   0.000089    0.45  0.000009  (-0.000694  0.002150  0.001947)
 56:   3203.44   0.000505    2.55  0.000049  (-0.001208  0.003208 -0.006121)
 57:   3222.58   0.000504    2.55  0.000049  ( 0.006974  0.000031  0.000366)
 58:   3229.81   0.000199    1.01  0.000019  ( 0.003519 -0.002620 -0.000134)
 59:   3239.84   0.000757    3.82  0.000073  (-0.004899 -0.006885 -0.001216)
 60:   3247.35   0.001008    5.10  0.000097  (-0.009583 -0.002150 -0.000664)
 61:   3257.61   0.000119    0.60  0.000011  (-0.000080  0.003320  0.000579)
 62:   3673.67   0.038515  194.64  0.003272  (-0.022957  0.004571 -0.052189)

* The epsilon (eps) is given for a Dirac delta lineshape.
** The dipole moment derivative (T) already includes vibrational overlap.

The first frequency considered to be a vibration is 7
The total number of vibrations considered is 56


--------------------------
THERMOCHEMISTRY AT 298.15K
--------------------------

Temperature         ... 298.15 K
Pressure            ... 1.00 atm
Total Mass          ... 180.16 AMU

Throughout the following assumptions are being made:
  (1) The electronic state is orbitally nondegenerate
  (2) There are no thermally accessible electronically excited states
  (3) Hindered rotations indicated by low frequency modes are not
      treated as such but are treated as vibrations and this may
      cause some error
  (4) All equations used are the standard statistical mechanics
      equations for an ideal gas
  (5) All vibrations are strictly harmonic

freq.      49.41  E(vib)   ...       0.52 
freq.     101.92  E(vib)   ...       0.46 
freq.     111.29  E(vib)   ...       0.45 
freq.     115.11  E(vib)   ...       0.44 
freq.     133.24  E(vib)   ...       0.42 
freq.     203.92  E(vib)   ...       0.35 
freq.     266.68  E(vib)   ...       0.29 
freq.     311.94  E(vib)   ...       0.25 
freq.     365.29  E(vib)   ...       0.22 
freq.     396.16  E(vib)   ...       0.20 
freq.     462.16  E(vib)   ...       0.16 
freq.     505.65  E(vib)   ...       0.14 
freq.     549.87  E(vib)   ...       0.12 
freq.     573.10  E(vib)   ...       0.11 
freq.     588.33  E(vib)   ...       0.10 
freq.     612.01  E(vib)   ...       0.10 
freq.     645.92  E(vib)   ...       0.09 
freq.     673.36  E(vib)   ...       0.08 
freq.     735.40  E(vib)   ...       0.06 
freq.     752.63  E(vib)   ...       0.06 
freq.     784.24  E(vib)   ...       0.05 
freq.     807.49  E(vib)   ...       0.05 
freq.     834.20  E(vib)   ...       0.04 
freq.     886.21  E(vib)   ...       0.04 
freq.     907.74  E(vib)   ...       0.03 
freq.     976.66  E(vib)   ...       0.03 
freq.    1001.22  E(vib)   ...       0.02 
freq.    1019.70  E(vib)   ...       0.02 
freq.    1041.52  E(vib)   ...       0.02 
freq.    1054.95  E(vib)   ...       0.02 
freq.    1090.79  E(vib)   ...       0.02 
freq.    1134.15  E(vib)   ...       0.01 
freq.    1156.40  E(vib)   ...       0.01 
freq.    1174.75  E(vib)   ...       0.01 
freq.    1198.60  E(vib)   ...       0.01 
freq.    1232.29  E(vib)   ...       0.01 
freq.    1276.91  E(vib)   ...       0.01 
freq.    1337.50  E(vib)   ...       0.01 
freq.    1355.68  E(vib)   ...       0.01 
freq.    1367.58  E(vib)   ...       0.01 
freq.    1400.22  E(vib)   ...       0.00 
freq.    1439.96  E(vib)   ...       0.00 
freq.    1475.96  E(vib)   ...       0.00 
freq.    1521.47  E(vib)   ...       0.00 
freq.    1638.70  E(vib)   ...       0.00 
freq.    1662.51  E(vib)   ...       0.00 
freq.    1710.61  E(vib)   ...       0.00 
freq.    1786.92  E(vib)   ...       0.00 
freq.    3109.51  E(vib)   ...       0.00 
freq.    3203.44  E(vib)   ...       0.00 
freq.    3222.58  E(vib)   ...       0.00 
freq.    3229.81  E(vib)   ...       0.00 
freq.    3239.84  E(vib)   ...       0.00 
freq.    3247.35  E(vib)   ...       0.00 
freq.    3257.61  E(vib)   ...       0.00 
freq.    3673.67  E(vib)   ...       0.00 

------------
INNER ENERGY
------------

The inner energy is: U= E(el) + E(ZPE) + E(vib) + E(rot) + E(trans)
    E(el)   - is the total energy from the electronic structure calculation
              = E(kin-el) + E(nuc-el) + E(el-el) + E(nuc-nuc)
    E(ZPE)  - the the zero temperature vibrational energy from the frequency calculation
    E(vib)  - the the finite temperature correction to E(ZPE) due to population
              of excited vibrational states
    E(rot)  - is the rotational thermal energy
    E(trans)- is the translational thermal energy

Summary of contributions to the inner energy U:
Electronic energy                ...   -647.87700159 Eh
Zero point energy                ...      0.15630999 Eh      98.09 kcal/mol
Thermal vibrational correction   ...      0.00805182 Eh       5.05 kcal/mol
Thermal rotational correction    ...      0.00141627 Eh       0.89 kcal/mol
Thermal translational correction ...      0.00141627 Eh       0.89 kcal/mol
-----------------------------------------------------------------------
Total thermal energy                   -647.70980724 Eh


Summary of corrections to the electronic energy:
(perhaps to be used in another calculation)
Total thermal correction                  0.01088436 Eh       6.83 kcal/mol
Non-thermal (ZPE) correction              0.15630999 Eh      98.09 kcal/mol
-----------------------------------------------------------------------
Total correction                          0.16719435 Eh     104.92 kcal/mol


--------
ENTHALPY
--------

The enthalpy is H = U + kB*T
                kB is Boltzmann's constant
Total free energy                 ...   -647.70980724 Eh 
Thermal Enthalpy correction       ...      0.00094421 Eh       0.59 kcal/mol
-----------------------------------------------------------------------
Total Enthalpy                    ...   -647.70886303 Eh


Note: Only C1 symmetry has been detected, increase convergence thresholds 
      if your molecule has a higher symmetry. Symmetry factor of 1.0 is   
      used for the rotational entropy correction. 
 

Note: Rotational entropy computed according to Herzberg 
Infrared and Raman Spectra, Chapter V,1, Van Nostrand Reinhold, 1945 
Point Group:  C1, Symmetry Number:   1  
Rotational constants in cm-1:     0.038272     0.024987     0.018044 

Vibrational entropy computed according to the QRRHO of S. Grimme
Chem.Eur.J. 2012 18 9955


-------
ENTROPY
-------

The entropy contributions are T*S = T*(S(el)+S(vib)+S(rot)+S(trans))
     S(el)   - electronic entropy
     S(vib)  - vibrational entropy
     S(rot)  - rotational entropy
     S(trans)- translational entropy
The entropies will be listed as multiplied by the temperature to get
units of energy

Electronic entropy                ...      0.00000000 Eh      0.00 kcal/mol
Vibrational entropy               ...      0.01386466 Eh      8.70 kcal/mol
Rotational entropy                ...      0.01468840 Eh      9.22 kcal/mol
Translational entropy             ...      0.01970496 Eh     12.37 kcal/mol
-----------------------------------------------------------------------
Final entropy term                ...      0.04825802 Eh     30.28 kcal/mol

In case the symmetry of your molecule has not been determined correctly
or in case you have a reason to use a different symmetry number we print 
out the resulting rotational entropy values for sn=1,12 :
 --------------------------------------------------------
|  sn= 1 | S(rot)=       0.01468840 Eh      9.22 kcal/mol|
|  sn= 2 | S(rot)=       0.01403394 Eh      8.81 kcal/mol|
|  sn= 3 | S(rot)=       0.01365111 Eh      8.57 kcal/mol|
|  sn= 4 | S(rot)=       0.01337949 Eh      8.40 kcal/mol|
|  sn= 5 | S(rot)=       0.01316880 Eh      8.26 kcal/mol|
|  sn= 6 | S(rot)=       0.01299666 Eh      8.16 kcal/mol|
|  sn= 7 | S(rot)=       0.01285111 Eh      8.06 kcal/mol|
|  sn= 8 | S(rot)=       0.01272503 Eh      7.99 kcal/mol|
|  sn= 9 | S(rot)=       0.01261382 Eh      7.92 kcal/mol|
|  sn=10 | S(rot)=       0.01251434 Eh      7.85 kcal/mol|
|  sn=11 | S(rot)=       0.01242435 Eh      7.80 kcal/mol|
|  sn=12 | S(rot)=       0.01234220 Eh      7.74 kcal/mol|
 --------------------------------------------------------


-------------------
GIBBS FREE ENERGY
-------------------

The Gibbs free energy is G = H - T*S

Total enthalpy                    ...   -647.70886303 Eh 
Total entropy correction          ...     -0.04825802 Eh    -30.28 kcal/mol
-----------------------------------------------------------------------
Final Gibbs free energy         ...   -647.75712105 Eh

For completeness - the Gibbs free energy minus the electronic energy
G-E(el)                           ...      0.11988054 Eh     75.23 kcal/mol


Timings for individual modules:

Sum of individual times         ...      567.463 sec (=   9.458 min)
GTO integral calculation        ...        0.173 sec (=   0.003 min)   0.0 %
SCF iterations                  ...       68.014 sec (=   1.134 min)  12.0 %
Analytical frequency calculation...      499.276 sec (=   8.321 min)  88.0 %
                             ****ORCA TERMINATED NORMALLY****
TOTAL RUN TIME: 0 days 0 hours 9 minutes 28 seconds 13 msec
