
                                 *****************
                                 * O   R   C   A *
                                 *****************

                                            #,                                       
                                            ###                                      
                                            ####                                     
                                            #####                                    
                                            ######                                   
                                           ########,                                 
                                     ,,################,,,,,                         
                               ,,#################################,,                 
                          ,,##########################################,,             
                       ,#########################################, ''#####,          
                    ,#############################################,,   '####,        
                  ,##################################################,,,,####,       
                ,###########''''           ''''###############################       
              ,#####''   ,,,,##########,,,,          '''####'''          '####       
            ,##' ,,,,###########################,,,                        '##       
           ' ,,###''''                  '''############,,,                           
         ,,##''                                '''############,,,,        ,,,,,,###''
      ,#''                                            '''#######################'''  
     '                                                          ''''####''''         
             ,#######,   #######,   ,#######,      ##                                
            ,#'     '#,  ##    ##  ,#'     '#,    #''#        ######   ,####,        
            ##       ##  ##   ,#'  ##            #'  '#       #        #'  '#        
            ##       ##  #######   ##           ,######,      #####,   #    #        
            '#,     ,#'  ##    ##  '#,     ,#' ,#      #,         ##   #,  ,#        
             '#######'   ##     ##  '#######'  #'      '#     #####' # '####'        



                  #######################################################
                  #                        -***-                        #
                  #          Department of theory and spectroscopy      #
                  #    Directorship and core code : Frank Neese         #
                  #        Max Planck Institute fuer Kohlenforschung    #
                  #                Kaiser Wilhelm Platz 1               #
                  #                 D-45470 Muelheim/Ruhr               #
                  #                      Germany                        #
                  #                                                     #
                  #                  All rights reserved                #
                  #                        -***-                        #
                  #######################################################


                         Program Version 5.0.3 -  RELEASE  -


 With contributions from (in alphabetic order):
   Daniel Aravena         : Magnetic Suceptibility
   Michael Atanasov       : Ab Initio Ligand Field Theory (pilot matlab implementation)
   Alexander A. Auer      : GIAO ZORA, VPT2 properties, NMR spectrum
   Ute Becker             : Parallelization
   Giovanni Bistoni       : ED, misc. LED, open-shell LED, HFLD
   Martin Brehm           : Molecular dynamics
   Dmytro Bykov           : SCF Hessian
   Vijay G. Chilkuri      : MRCI spin determinant printing, contributions to CSF-ICE
   Dipayan Datta          : RHF DLPNO-CCSD density
   Achintya Kumar Dutta   : EOM-CC, STEOM-CC
   Dmitry Ganyushin       : Spin-Orbit,Spin-Spin,Magnetic field MRCI
   Miquel Garcia          : C-PCM and meta-GGA Hessian, CC/C-PCM, Gaussian charge scheme
   Yang Guo               : DLPNO-NEVPT2, F12-NEVPT2, CIM, IAO-localization
   Andreas Hansen         : Spin unrestricted coupled pair/coupled cluster methods
   Benjamin Helmich-Paris : MC-RPA, TRAH-SCF, COSX integrals
   Lee Huntington         : MR-EOM, pCC
   Robert Izsak           : Overlap fitted RIJCOSX, COSX-SCS-MP3, EOM
   Marcus Kettner         : VPT2
   Christian Kollmar      : KDIIS, OOCD, Brueckner-CCSD(T), CCSD density, CASPT2, CASPT2-K
   Simone Kossmann        : Meta GGA functionals, TD-DFT gradient, OOMP2, MP2 Hessian
   Martin Krupicka        : Initial AUTO-CI
   Lucas Lang             : DCDCAS
   Marvin Lechner         : AUTO-CI (C++ implementation), FIC-MRCC
   Dagmar Lenk            : GEPOL surface, SMD
   Dimitrios Liakos       : Extrapolation schemes; Compound Job, initial MDCI parallelization
   Dimitrios Manganas     : Further ROCIS development; embedding schemes
   Dimitrios Pantazis     : SARC Basis sets
   Anastasios Papadopoulos: AUTO-CI, single reference methods and gradients
   Taras Petrenko         : DFT Hessian,TD-DFT gradient, ASA, ECA, R-Raman, ABS, FL, XAS/XES, NRVS
   Peter Pinski           : DLPNO-MP2, DLPNO-MP2 Gradient
   Christoph Reimann      : Effective Core Potentials
   Marius Retegan         : Local ZFS, SOC
   Christoph Riplinger    : Optimizer, TS searches, QM/MM, DLPNO-CCSD(T), (RO)-DLPNO pert. Triples
   Tobias Risthaus        : Range-separated hybrids, TD-DFT gradient, RPA, STAB
   Michael Roemelt        : Original ROCIS implementation
   Masaaki Saitow         : Open-shell DLPNO-CCSD energy and density
   Barbara Sandhoefer     : DKH picture change effects
   Avijit Sen             : IP-ROCIS
   Kantharuban Sivalingam : CASSCF convergence, NEVPT2, FIC-MRCI
   Bernardo de Souza      : ESD, SOC TD-DFT
   Georgi Stoychev        : AutoAux, RI-MP2 NMR, DLPNO-MP2 response
   Willem Van den Heuvel  : Paramagnetic NMR
   Boris Wezisla          : Elementary symmetry handling
   Frank Wennmohs         : Technical directorship


 We gratefully acknowledge several colleagues who have allowed us to
 interface, adapt or use parts of their codes:
   Stefan Grimme, W. Hujo, H. Kruse, P. Pracht,  : VdW corrections, initial TS optimization,
                  C. Bannwarth, S. Ehlert          DFT functionals, gCP, sTDA/sTD-DF
   Ed Valeev, F. Pavosevic, A. Kumar             : LibInt (2-el integral package), F12 methods
   Garnet Chan, S. Sharma, J. Yang, R. Olivares  : DMRG
   Ulf Ekstrom                                   : XCFun DFT Library
   Mihaly Kallay                                 : mrcc  (arbitrary order and MRCC methods)
   Jiri Pittner, Ondrej Demel                    : Mk-CCSD
   Frank Weinhold                                : gennbo (NPA and NBO analysis)
   Christopher J. Cramer and Donald G. Truhlar   : smd solvation model
   Lars Goerigk                                  : TD-DFT with DH, B97 family of functionals
   V. Asgeirsson, H. Jonsson                     : NEB implementation
   FAccTs GmbH                                   : IRC, NEB, NEB-TS, DLPNO-Multilevel, CI-OPT
                                                   MM, QMMM, 2- and 3-layer-ONIOM, Crystal-QMMM,
                                                   LR-CPCM, SF, NACMEs, symmetry and pop. for TD-DFT,
                                                   nearIR, NL-DFT gradient (VV10), updates on ESD,
                                                   ML-optimized integration grids
   S Lehtola, MJT Oliveira, MAL Marques          : LibXC Library
   Liviu Ungur et al                             : ANISO software


 Your calculation uses the libint2 library for the computation of 2-el integrals
 For citations please refer to: http://libint.valeyev.net

 Your ORCA version has been built with support for libXC version: 5.1.0
 For citations please refer to: https://tddft.org/programs/libxc/

 This ORCA versions uses:
   CBLAS   interface :  Fast vector & matrix operations
   LAPACKE interface :  Fast linear algebra routines
   SCALAPACK package :  Parallel linear algebra routines
   Shared memory     :  Shared parallel matrices
   BLAS/LAPACK       :  OpenBLAS 0.3.19 NO_AFFINITY VORTEX SINGLE_THREADED
        Core in use  :  VORTEX
   Copyright (c) 2011-2014, The OpenBLAS Project


================================================================================

----- Orbital basis set information -----
Your calculation utilizes the basis: def2-SVP
   F. Weigend and R. Ahlrichs, Phys. Chem. Chem. Phys. 7, 3297 (2005).

================================================================================
                                        WARNINGS
                       Please study these warnings very carefully!
================================================================================


WARNING: Geometry Optimization
  ===> : Switching off AutoStart
         For restart on a previous wavefunction, please use MOREAD

INFO   : the flag for use of the SHARK integral package has been found!

================================================================================
                                       INPUT FILE
================================================================================
NAME = salicylic_acid.inp
|  1> # avogadro generated ORCA input file 
|  2> # Basic Mode
|  3> # 
|  4> ! RHF OPT FREQ def2-SVP 
|  5> 
|  6> * xyz 0 1
|  7>    C        4.00644        1.11162        0.00000
|  8>    C        3.99115        2.51232       -0.00000
|  9>    C        2.77303        3.21182       -0.00000
| 10>    C        1.57790        2.46764        0.00000
| 11>    O        0.32861        3.03408        0.00000
| 12>    C        1.59805        1.07274        0.00000
| 13>    C        2.81303        0.39403        0.00000
| 14>    C        2.68146        4.70137       -0.00000
| 15>    O        3.83186        5.40013       -0.00000
| 16>    O        1.59332        5.26314        0.00000
| 17>    H        4.95457        0.57747       -0.00000
| 18>    H        4.95458        3.00722        0.00000
| 19>    H        0.42624        4.01340       -0.00000
| 20>    H        0.66229        0.51904       -0.00000
| 21>    H        2.82684       -0.69321       -0.00000
| 22>    H        4.66681        4.90709        0.00000
| 23> *
| 24> 
| 25> 
| 26>                          ****END OF INPUT****
================================================================================

                       *****************************
                       * Geometry Optimization Run *
                       *****************************

Geometry optimization settings:
Update method            Update   .... BFGS
Choice of coordinates    CoordSys .... Z-matrix Internals
Initial Hessian          InHess   .... Almoef's Model

Convergence Tolerances:
Energy Change            TolE     ....  5.0000e-06 Eh
Max. Gradient            TolMAXG  ....  3.0000e-04 Eh/bohr
RMS Gradient             TolRMSG  ....  1.0000e-04 Eh/bohr
Max. Displacement        TolMAXD  ....  4.0000e-03 bohr
RMS Displacement         TolRMSD  ....  2.0000e-03 bohr
Strict Convergence                ....  False
------------------------------------------------------------------------------
                        ORCA OPTIMIZATION COORDINATE SETUP
------------------------------------------------------------------------------

The optimization will be done in new redundant internal coordinates
Making redundant internal coordinates   ...  (new redundants) done
Evaluating the initial hessian          ...  (Almloef) done
Evaluating the coordinates              ...  done
Calculating the B-matrix                .... done
Calculating the G-matrix                .... done
Diagonalizing the G-matrix              .... done
The first mode is                       ....   29
The number of degrees of freedom        ....   42

    -----------------------------------------------------------------
                    Redundant Internal Coordinates


    -----------------------------------------------------------------
         Definition                    Initial Value    Approx d2E/dq
    -----------------------------------------------------------------
      1. B(C   1,C   0)                  1.4008         0.600529   
      2. B(C   2,C   1)                  1.4047         0.592002   
      3. B(C   3,C   2)                  1.4079         0.585066   
      4. B(O   4,C   3)                  1.3717         0.598496   
      5. B(C   5,C   3)                  1.3950         0.613322   
      6. B(C   6,C   5)                  1.3917         0.620911   
      7. B(C   6,C   0)                  1.3925         0.618998   
      8. B(C   7,C   2)                  1.4924         0.428970   
      9. B(O   8,C   7)                  1.3460         0.657798   
     10. B(O   9,C   7)                  1.2246         1.027467   
     11. B(H  10,C   0)                  1.0882         0.362436   
     12. B(H  11,C   1)                  1.0831         0.369333   
     13. B(H  12,O   4)                  0.9842         0.475771   
     14. B(H  13,C   5)                  1.0873         0.363684   
     15. B(H  14,C   6)                  1.0873         0.363653   
     16. B(H  15,O   8)                  0.9697         0.501838   
     17. A(C   6,C   0,H  10)          119.5861         0.353199   
     18. A(C   1,C   0,H  10)          120.0211         0.351394   
     19. A(C   1,C   0,C   6)          120.3928         0.431457   
     20. A(C   0,C   1,C   2)          120.4918         0.428018   
     21. A(C   2,C   1,H  11)          122.9447         0.351664   
     22. A(C   0,C   1,H  11)          116.5635         0.352516   
     23. A(C   3,C   2,C   7)          118.3917         0.402325   
     24. A(C   1,C   2,C   3)          118.2240         0.426023   
     25. A(C   1,C   2,C   7)          123.3842         0.403162   
     26. A(C   2,C   3,O   4)          123.7004         0.424076   
     27. A(O   4,C   3,C   5)          115.2176         0.427672   
     28. A(C   2,C   3,C   5)          121.0820         0.428732   
     29. A(C   3,O   4,H  12)          108.6969         0.362329   
     30. A(C   3,C   5,C   6)          120.0161         0.433336   
     31. A(C   6,C   5,H  13)          120.1982         0.353589   
     32. A(C   3,C   5,H  13)          119.7857         0.352854   
     33. A(C   5,C   6,H  14)          119.9162         0.353584   
     34. A(C   0,C   6,H  14)          120.2905         0.353399   
     35. A(C   0,C   6,C   5)          119.7932         0.434054   
     36. A(O   8,C   7,O   9)          121.4195         0.474652   
     37. A(C   2,C   7,O   9)          120.8236         0.441989   
     38. A(C   2,C   7,O   8)          117.7569         0.408099   
     39. A(C   7,O   8,H  15)          118.1633         0.371629   
     40. D(H  11,C   1,C   0,H  10)      0.0000         0.024864   
     41. D(C   2,C   1,C   0,C   6)      0.0000         0.024864   
     42. D(C   2,C   1,C   0,H  10)    180.0000         0.024864   
     43. D(H  11,C   1,C   0,C   6)    180.0000         0.024864   
     44. D(C   3,C   2,C   1,C   0)      0.0000         0.024126   
     45. D(C   7,C   2,C   1,H  11)      0.0000         0.024126   
     46. D(C   3,C   2,C   1,H  11)    180.0000         0.024126   
     47. D(C   7,C   2,C   1,C   0)    180.0000         0.024126   
     48. D(C   5,C   3,C   2,C   7)    180.0000         0.023537   
     49. D(C   5,C   3,C   2,C   1)      0.0000         0.023537   
     50. D(O   4,C   3,C   2,C   7)      0.0000         0.023537   
     51. D(O   4,C   3,C   2,C   1)    180.0000         0.023537   
     52. D(H  12,O   4,C   3,C   5)    180.0000         0.026153   
     53. D(H  12,O   4,C   3,C   2)      0.0000         0.026153   
     54. D(C   6,C   5,C   3,C   2)      0.0000         0.025996   
     55. D(H  13,C   5,C   3,O   4)      0.0000         0.025996   
     56. D(H  13,C   5,C   3,C   2)    180.0000         0.025996   
     57. D(C   6,C   5,C   3,O   4)    180.0000         0.025996   
     58. D(H  14,C   6,C   5,H  13)      0.0000         0.026682   
     59. D(H  14,C   6,C   5,C   3)    180.0000         0.026682   
     60. D(C   0,C   6,C   5,H  13)    180.0000         0.026682   
     61. D(C   0,C   6,C   5,C   3)      0.0000         0.026682   
     62. D(H  14,C   6,C   0,H  10)      0.0000         0.026508   
     63. D(H  14,C   6,C   0,C   1)    180.0000         0.026508   
     64. D(C   5,C   6,C   0,H  10)    180.0000         0.026508   
     65. D(C   5,C   6,C   0,C   1)      0.0000         0.026508   
     66. D(O   9,C   7,C   2,C   3)      0.0000         0.012575   
     67. D(O   9,C   7,C   2,C   1)    180.0000         0.012575   
     68. D(O   8,C   7,C   2,C   3)    180.0000         0.012575   
     69. D(O   8,C   7,C   2,C   1)      0.0000         0.012575   
     70. D(H  15,O   8,C   7,C   2)      0.0000         0.032042   
     71. D(H  15,O   8,C   7,O   9)    180.0000         0.032042   
    -----------------------------------------------------------------

Number of atoms                         .... 16
Number of degrees of freedom            .... 71

         *************************************************************
         *                GEOMETRY OPTIMIZATION CYCLE   1            *
         *************************************************************
---------------------------------
CARTESIAN COORDINATES (ANGSTROEM)
---------------------------------
  C      4.006440    1.111620    0.000000
  C      3.991150    2.512320   -0.000000
  C      2.773030    3.211820   -0.000000
  C      1.577900    2.467640    0.000000
  O      0.328610    3.034080    0.000000
  C      1.598050    1.072740    0.000000
  C      2.813030    0.394030    0.000000
  C      2.681460    4.701370   -0.000000
  O      3.831860    5.400130   -0.000000
  O      1.593320    5.263140    0.000000
  H      4.954570    0.577470   -0.000000
  H      4.954580    3.007220    0.000000
  H      0.426240    4.013400   -0.000000
  H      0.662290    0.519040   -0.000000
  H      2.826840   -0.693210   -0.000000
  H      4.666810    4.907090    0.000000

----------------------------
CARTESIAN COORDINATES (A.U.)
----------------------------
  NO LB      ZA    FRAG     MASS         X           Y           Z
   0 C     6.0000    0    12.011    7.571074    2.100657    0.000000
   1 C     6.0000    0    12.011    7.542180    4.747597   -0.000000
   2 C     6.0000    0    12.011    5.240267    6.069460   -0.000000
   3 C     6.0000    0    12.011    2.981799    4.663164    0.000000
   4 O     8.0000    0    15.999    0.620983    5.733580    0.000000
   5 C     6.0000    0    12.011    3.019877    2.027185    0.000000
   6 C     6.0000    0    12.011    5.315856    0.744609    0.000000
   7 C     6.0000    0    12.011    5.067225    8.884302   -0.000000
   8 O     8.0000    0    15.999    7.241166   10.204767   -0.000000
   9 O     8.0000    0    15.999    3.010938    9.945893    0.000000
  10 H     1.0000    0     1.008    9.362780    1.091260   -0.000000
  11 H     1.0000    0     1.008    9.362799    5.682822    0.000000
  12 H     1.0000    0     1.008    0.805477    7.584227   -0.000000
  13 H     1.0000    0     1.008    1.251547    0.980843   -0.000000
  14 H     1.0000    0     1.008    5.341953   -1.309977   -0.000000
  15 H     1.0000    0     1.008    8.818993    9.273056    0.000000

--------------------------------
INTERNAL COORDINATES (ANGSTROEM)
--------------------------------
 C      0   0   0     0.000000000000     0.00000000     0.00000000
 C      1   0   0     1.400783450109     0.00000000     0.00000000
 C      2   1   0     1.404676683226   120.49181974     0.00000000
 C      3   2   1     1.407884792623   118.22402091     0.00000000
 O      4   3   2     1.371706884761   123.70043364   180.00000000
 C      4   3   2     1.395045530619   121.08196608     0.00000000
 C      6   4   3     1.391698122619   120.01612996     0.00000000
 C      3   2   1     1.492361975996   123.38423323   180.00000000
 O      8   3   2     1.345988743489   117.75692389     0.00000000
 O      8   3   2     1.224595521999   120.82360954   180.00000000
 H      1   2   3     1.088240193799   120.02111172   180.00000085
 H      2   1   3     1.083108200920   116.56349318   180.00000000
 H      5   4   3     0.984174415081   108.69689398     0.00000000
 H      6   4   3     1.087304220354   119.78568571   180.00000000
 H      7   6   4     1.087327702995   119.91624789   180.00000000
 H      9   8   3     0.969654548847   118.16329462     0.00000000

---------------------------
INTERNAL COORDINATES (A.U.)
---------------------------
 C      0   0   0     0.000000000000     0.00000000     0.00000000
 C      1   0   0     2.647097093636     0.00000000     0.00000000
 C      2   1   0     2.654454238003   120.49181974     0.00000000
 C      3   2   1     2.660516686171   118.22402091     0.00000000
 O      4   3   2     2.592150348212   123.70043364   180.00000000
 C      4   3   2     2.636253997221   121.08196608     0.00000000
 C      6   4   3     2.629928312841   120.01612996     0.00000000
 C      3   2   1     2.820155427311   123.38423323   180.00000000
 O      8   3   2     2.543550104536   117.75692389     0.00000000
 O      8   3   2     2.314150161404   120.82360954   180.00000000
 H      1   2   3     2.056475934206   120.02111172   180.00000085
 H      2   1   3     2.046777873143   116.56349318   180.00000000
 H      5   4   3     1.859820112515   108.69689398     0.00000000
 H      6   4   3     2.054707200726   119.78568571   180.00000000
 H      7   6   4     2.054751576486   119.91624789   180.00000000
 H      9   8   3     1.832381541832   118.16329462     0.00000000

---------------------
BASIS SET INFORMATION
---------------------
There are 3 groups of distinct atoms

 Group   1 Type C   : 7s4p1d contracted to 3s2p1d pattern {511/31/1}
 Group   2 Type O   : 7s4p1d contracted to 3s2p1d pattern {511/31/1}
 Group   3 Type H   : 4s1p contracted to 2s1p pattern {31/1}

Atom   0C    basis set group =>   1
Atom   1C    basis set group =>   1
Atom   2C    basis set group =>   1
Atom   3C    basis set group =>   1
Atom   4O    basis set group =>   2
Atom   5C    basis set group =>   1
Atom   6C    basis set group =>   1
Atom   7C    basis set group =>   1
Atom   8O    basis set group =>   2
Atom   9O    basis set group =>   2
Atom  10H    basis set group =>   3
Atom  11H    basis set group =>   3
Atom  12H    basis set group =>   3
Atom  13H    basis set group =>   3
Atom  14H    basis set group =>   3
Atom  15H    basis set group =>   3
------------------------------------------------------------------------------
                           ORCA GTO INTEGRAL CALCULATION
------------------------------------------------------------------------------
------------------------------------------------------------------------------
                   ___                                                        
                  /   \      - P O W E R E D   B Y -                         
                 /     \                                                     
                 |  |  |   _    _      __       _____    __    __             
                 |  |  |  | |  | |    /  \     |  _  \  |  |  /  |          
                  \  \/   | |  | |   /    \    | | | |  |  | /  /          
                 / \  \   | |__| |  /  /\  \   | |_| |  |  |/  /          
                |  |  |   |  __  | /  /__\  \  |    /   |      \           
                |  |  |   | |  | | |   __   |  |    \   |  |\   \          
                \     /   | |  | | |  |  |  |  | |\  \  |  | \   \       
                 \___/    |_|  |_| |__|  |__|  |_| \__\ |__|  \__/        
                                                                              
                      - O R C A' S   B I G   F R I E N D -                    
                                      &                                       
                       - I N T E G R A L  F E E D E R -                       
                                                                              
 v1 FN, 2020, v2 2021                                                         
------------------------------------------------------------------------------


Reading SHARK input file salicylic_acid.SHARKINP.tmp ... ok
----------------------
SHARK INTEGRAL PACKAGE
----------------------

Number of atoms                             ...     16
Number of basis functions                   ...    170
Number of shells                            ...     78
Maximum angular momentum                    ...      2
Integral batch strategy                     ... SHARK/LIBINT Hybrid
RI-J (if used) integral strategy            ... SPLIT-RIJ (Revised 2003 algorithm where possible)
Printlevel                                  ...      1
Contraction scheme used                     ... SEGMENTED contraction
Coulomb Range Separation                    ... NOT USED
Exchange Range Separation                   ... NOT USED
Finite Nucleus Model                        ... NOT USED
Auxiliary Coulomb fitting basis             ... NOT available
Auxiliary J/K fitting basis                 ... NOT available
Auxiliary Correlation fitting basis         ... NOT available
Auxiliary 'external' fitting basis          ... NOT available
Integral threshold                          ...     2.500000e-11
Primitive cut-off                           ...     2.500000e-12
Primitive pair pre-selection threshold      ...     2.500000e-12

Calculating pre-screening integrals         ... done (  0.0 sec) Dimension = 78
Organizing shell pair data                  ... done (  0.0 sec)
Shell pair information
Total number of shell pairs                 ...      3081
Shell pairs after pre-screening             ...      2841
Total number of primitive shell pairs       ...     11473
Primitive shell pairs kept                  ...      7593
          la=0 lb=0:    827 shell pairs
          la=1 lb=0:   1017 shell pairs
          la=1 lb=1:    331 shell pairs
          la=2 lb=0:    378 shell pairs
          la=2 lb=1:    238 shell pairs
          la=2 lb=2:     50 shell pairs

Calculating one electron integrals          ... done (  0.0 sec)
Calculating Nuclear repulsion               ... done (  0.0 sec) ENN=    501.641890194748 Eh

SHARK setup successfully completed in   0.1 seconds

Maximum memory used throughout the entire GTOINT-calculation: 22.2 MB
-------------------------------------------------------------------------------
                                 ORCA SCF
-------------------------------------------------------------------------------

------------
SCF SETTINGS
------------
Hamiltonian:
 Ab initio Hamiltonian  Method          .... Hartree-Fock(GTOs)


General Settings:
 Integral files         IntName         .... salicylic_acid
 Hartree-Fock type      HFTyp           .... RHF
 Total Charge           Charge          ....    0
 Multiplicity           Mult            ....    1
 Number of Electrons    NEL             ....   72
 Basis Dimension        Dim             ....  170
 Nuclear Repulsion      ENuc            ....    501.6418901947 Eh

Convergence Acceleration:
 DIIS                   CNVDIIS         .... on
   Start iteration      DIISMaxIt       ....    12
   Startup error        DIISStart       ....  0.200000
   # of expansion vecs  DIISMaxEq       ....     5
   Bias factor          DIISBfac        ....   1.050
   Max. coefficient     DIISMaxC        ....  10.000
 Trust-Rad. Augm. Hess. CNVTRAH         .... auto
   Auto Start mean grad. ratio tolernc. ....  1.125000
   Auto Start start iteration           ....    20
   Auto Start num. interpolation iter.  ....    10
   Max. Number of Micro iterations      ....    16
   Max. Number of Macro iterations      .... Maxiter - #DIIS iter
   Number of Davidson start vectors     ....     2
   Converg. threshold I  (grad. norm)   ....   1.000e-05
   Converg. threshold II (energy diff.) ....   1.000e-08
   Grad. Scal. Fac. for Micro threshold ....   0.100
   Minimum threshold for Micro iter.    ....   0.010
   NR start threshold (gradient norm)   ....   0.001
   Initial trust radius                 ....   0.400
   Minimum AH scaling param. (alpha)    ....   1.000
   Maximum AH scaling param. (alpha)    .... 1000.000
   Orbital update algorithm             .... Taylor
   White noise on init. David. guess    .... on
   Maximum white noise                  ....   0.010
   Quad. conv. algorithm                .... NR
 SOSCF                  CNVSOSCF        .... on
   Start iteration      SOSCFMaxIt      ....   150
   Startup grad/error   SOSCFStart      ....  0.003300
 Level Shifting         CNVShift        .... on
   Level shift para.    LevelShift      ....    0.2500
   Turn off err/grad.   ShiftErr        ....    0.0010
 Zerner damping         CNVZerner       .... off
 Static damping         CNVDamp         .... on
   Fraction old density DampFac         ....    0.7000
   Max. Damping (<1)    DampMax         ....    0.9800
   Min. Damping (>=0)   DampMin         ....    0.0000
   Turn off err/grad.   DampErr         ....    0.1000
 Fernandez-Rico         CNVRico         .... off

SCF Procedure:
 Maximum # iterations   MaxIter         ....   125
 SCF integral mode      SCFMode         .... Direct
   Integral package                     .... SHARK and LIBINT hybrid scheme
 Reset frequency        DirectResetFreq ....    20
 Integral Threshold     Thresh          ....  2.500e-11 Eh
 Primitive CutOff       TCut            ....  2.500e-12 Eh

Convergence Tolerance:
 Convergence Check Mode ConvCheckMode   .... Total+1el-Energy
 Convergence forced     ConvForced      .... 0
 Energy Change          TolE            ....  1.000e-08 Eh
 1-El. energy change                    ....  1.000e-05 Eh
 Orbital Gradient       TolG            ....  1.000e-05
 Orbital Rotation angle TolX            ....  1.000e-05
 DIIS Error             TolErr          ....  5.000e-07


Diagonalization of the overlap matrix:
Smallest eigenvalue                        ... 2.545e-04
Time for diagonalization                   ...    0.004 sec
Threshold for overlap eigenvalues          ... 1.000e-08
Number of eigenvalues below threshold      ... 0
Time for construction of square roots      ...    0.002 sec
Total time needed                          ...    0.006 sec

Time for model grid setup =    0.091 sec

------------------------------
INITIAL GUESS: MODEL POTENTIAL
------------------------------
Loading Hartree-Fock densities                     ... done
Calculating cut-offs                               ... done
Initializing the effective Hamiltonian             ... done
Setting up the integral package (SHARK)            ... done
Starting the Coulomb interaction                   ... done (   0.1 sec)
Reading the grid                                   ... done
Mapping shells                                     ... done
Starting the XC term evaluation                    ... done (   0.1 sec)
Transforming the Hamiltonian                       ... done (   0.0 sec)
Diagonalizing the Hamiltonian                      ... done (   0.0 sec)
Back transforming the eigenvectors                 ... done (   0.0 sec)
Now organizing SCF variables                       ... done
                      ------------------
                      INITIAL GUESS DONE (   0.2 sec)
                      ------------------
--------------
SCF ITERATIONS
--------------
ITER       Energy         Delta-E        Max-DP      RMS-DP      [F,P]     Damp
               ***  Starting incremental Fock matrix formation  ***
  0   -492.4735978227   0.000000000000 0.05936294  0.00285074  0.2417230 0.7000
  1   -492.5874991280  -0.113901305366 0.04494129  0.00223108  0.1482214 0.7000
                               ***Turning on DIIS***
  2   -492.6559044774  -0.068405349346 0.12510004  0.00519163  0.0848253 0.0000
  3   -492.2165391422   0.439365335189 0.03007791  0.00101867  0.0476541 0.0000
  4   -492.8420623509  -0.625523208672 0.01003283  0.00037523  0.0093753 0.0000
  5   -492.8067769489   0.035285401918 0.00430256  0.00016078  0.0050445 0.0000
                      *** Initiating the SOSCF procedure ***
                           *** Shutting down DIIS ***
                      *** Re-Reading the Fockian *** 
                      *** Removing any level shift *** 
ITER      Energy       Delta-E        Grad      Rot      Max-DP    RMS-DP
  6   -492.79633165   0.0104453019  0.001145  0.001145  0.002126  0.000076
               *** Restarting incremental Fock matrix formation ***
  7   -492.80073008  -0.0043984362  0.000459  0.000844  0.000863  0.000037
  8   -492.80074273  -0.0000126495  0.000241  0.000933  0.001290  0.000041
  9   -492.80074752  -0.0000047834  0.000134  0.000209  0.000292  0.000009
 10   -492.80074797  -0.0000004526  0.000049  0.000081  0.000088  0.000003
 11   -492.80074806  -0.0000000870  0.000030  0.000113  0.000060  0.000002
 12   -492.80074808  -0.0000000243  0.000014  0.000054  0.000037  0.000001
 13   -492.80074808  -0.0000000036  0.000005  0.000010  0.000013  0.000000
                 **** Energy Check signals convergence ****
              ***Rediagonalizing the Fockian in SOSCF/NRSCF***

               *****************************************************
               *                     SUCCESS                       *
               *           SCF CONVERGED AFTER  14 CYCLES          *
               *****************************************************


----------------
TOTAL SCF ENERGY
----------------

Total Energy       :         -492.80074808 Eh          -13409.79010 eV

Components:
Nuclear Repulsion  :          501.64189019 Eh           13650.36980 eV
Electronic Energy  :         -994.44263828 Eh          -27060.15990 eV
One Electron Energy:        -1667.49108623 Eh          -45374.73926 eV
Two Electron Energy:          673.04844795 Eh           18314.57936 eV

Virial components:
Potential Energy   :         -983.43582565 Eh          -26760.64930 eV
Kinetic Energy     :          490.63507757 Eh           13350.85921 eV
Virial Ratio       :            2.00441401


---------------
SCF CONVERGENCE
---------------

  Last Energy change         ...   -1.0084e-09  Tolerance :   1.0000e-08
  Last MAX-Density change    ...    5.9260e-06  Tolerance :   1.0000e-07
  Last RMS-Density change    ...    1.3773e-07  Tolerance :   5.0000e-09
  Last Orbital Gradient      ...    1.4754e-06  Tolerance :   1.0000e-05
  Last Orbital Rotation      ...    3.3226e-06  Tolerance :   1.0000e-05

             **** THE GBW FILE WAS UPDATED (salicylic_acid.gbw) ****
             **** DENSITY salicylic_acid.scfp WAS UPDATED ****
             **** ENERGY FILE WAS UPDATED (salicylic_acid.en.tmp) ****
             **** THE GBW FILE WAS UPDATED (salicylic_acid.gbw) ****
             **** DENSITY salicylic_acid.scfp WAS UPDATED ****
----------------
ORBITAL ENERGIES
----------------

  NO   OCC          E(Eh)            E(eV) 
   0   2.0000     -20.623208      -561.1860 
   1   2.0000     -20.570657      -559.7560 
   2   2.0000     -20.558449      -559.4238 
   3   2.0000     -11.420254      -310.7609 
   4   2.0000     -11.333274      -308.3941 
   5   2.0000     -11.286542      -307.1224 
   6   2.0000     -11.272057      -306.7283 
   7   2.0000     -11.270617      -306.6891 
   8   2.0000     -11.256247      -306.2981 
   9   2.0000     -11.249601      -306.1172 
  10   2.0000      -1.458015       -39.6746 
  11   2.0000      -1.383402       -37.6443 
  12   2.0000      -1.354526       -36.8585 
  13   2.0000      -1.165958       -31.7273 
  14   2.0000      -1.052582       -28.6422 
  15   2.0000      -1.019749       -27.7488 
  16   2.0000      -0.901146       -24.5214 
  17   2.0000      -0.859519       -23.3887 
  18   2.0000      -0.842058       -22.9136 
  19   2.0000      -0.778277       -21.1780 
  20   2.0000      -0.722601       -19.6630 
  21   2.0000      -0.694963       -18.9109 
  22   2.0000      -0.681954       -18.5569 
  23   2.0000      -0.652154       -17.7460 
  24   2.0000      -0.647416       -17.6171 
  25   2.0000      -0.632014       -17.1980 
  26   2.0000      -0.590147       -16.0587 
  27   2.0000      -0.586217       -15.9518 
  28   2.0000      -0.571424       -15.5492 
  29   2.0000      -0.556912       -15.1543 
  30   2.0000      -0.530059       -14.4236 
  31   2.0000      -0.503034       -13.6882 
  32   2.0000      -0.497862       -13.5475 
  33   2.0000      -0.464596       -12.6423 
  34   2.0000      -0.375018       -10.2047 
  35   2.0000      -0.334586        -9.1046 
  36   0.0000       0.067600         1.8395 
  37   0.0000       0.123501         3.3606 
  38   0.0000       0.144380         3.9288 
  39   0.0000       0.185790         5.0556 
  40   0.0000       0.210947         5.7402 
  41   0.0000       0.220963         6.0127 
  42   0.0000       0.251917         6.8550 
  43   0.0000       0.269388         7.3304 
  44   0.0000       0.296021         8.0551 
  45   0.0000       0.352277         9.5860 
  46   0.0000       0.358403         9.7527 
  47   0.0000       0.400966        10.9108 
  48   0.0000       0.416611        11.3366 
  49   0.0000       0.427392        11.6299 
  50   0.0000       0.442487        12.0407 
  51   0.0000       0.477141        12.9837 
  52   0.0000       0.489763        13.3271 
  53   0.0000       0.512064        13.9340 
  54   0.0000       0.536415        14.5966 
  55   0.0000       0.563511        15.3339 
  56   0.0000       0.590853        16.0779 
  57   0.0000       0.625681        17.0256 
  58   0.0000       0.641710        17.4618 
  59   0.0000       0.644792        17.5457 
  60   0.0000       0.663598        18.0574 
  61   0.0000       0.685776        18.6609 
  62   0.0000       0.697389        18.9769 
  63   0.0000       0.713118        19.4049 
  64   0.0000       0.728006        19.8101 
  65   0.0000       0.737015        20.0552 
  66   0.0000       0.781171        21.2568 
  67   0.0000       0.792378        21.5617 
  68   0.0000       0.811188        22.0736 
  69   0.0000       0.822548        22.3827 
  70   0.0000       0.838613        22.8198 
  71   0.0000       0.853797        23.2330 
  72   0.0000       0.871157        23.7054 
  73   0.0000       0.884409        24.0660 
  74   0.0000       0.896011        24.3817 
  75   0.0000       0.920684        25.0531 
  76   0.0000       0.932400        25.3719 
  77   0.0000       0.936502        25.4835 
  78   0.0000       0.961285        26.1579 
  79   0.0000       0.996398        27.1134 
  80   0.0000       1.004882        27.3442 
  81   0.0000       1.057144        28.7663 
  82   0.0000       1.062721        28.9181 
  83   0.0000       1.090343        29.6697 
  84   0.0000       1.151465        31.3330 
  85   0.0000       1.214580        33.0504 
  86   0.0000       1.223382        33.2899 
  87   0.0000       1.238675        33.7061 
  88   0.0000       1.289630        35.0926 
  89   0.0000       1.313006        35.7287 
  90   0.0000       1.327590        36.1256 
  91   0.0000       1.332082        36.2478 
  92   0.0000       1.382670        37.6244 
  93   0.0000       1.425375        38.7864 
  94   0.0000       1.443004        39.2661 
  95   0.0000       1.463359        39.8200 
  96   0.0000       1.464014        39.8378 
  97   0.0000       1.482731        40.3472 
  98   0.0000       1.512271        41.1510 
  99   0.0000       1.517628        41.2968 
 100   0.0000       1.546128        42.0723 
 101   0.0000       1.580094        42.9965 
 102   0.0000       1.630907        44.3792 
 103   0.0000       1.643120        44.7116 
 104   0.0000       1.679642        45.7054 
 105   0.0000       1.707234        46.4562 
 106   0.0000       1.717807        46.7439 
 107   0.0000       1.802763        49.0557 
 108   0.0000       1.803564        49.0775 
 109   0.0000       1.887062        51.3496 
 110   0.0000       1.915882        52.1338 
 111   0.0000       1.927798        52.4581 
 112   0.0000       1.948312        53.0163 
 113   0.0000       1.972726        53.6806 
 114   0.0000       1.985295        54.0226 
 115   0.0000       1.999229        54.4018 
 116   0.0000       2.006706        54.6052 
 117   0.0000       2.008234        54.6468 
 118   0.0000       2.046458        55.6870 
 119   0.0000       2.075080        56.4658 
 120   0.0000       2.079011        56.5728 
 121   0.0000       2.084391        56.7192 
 122   0.0000       2.146638        58.4130 
 123   0.0000       2.179008        59.2938 
 124   0.0000       2.218281        60.3625 
 125   0.0000       2.247331        61.1530 
 126   0.0000       2.257153        61.4203 
 127   0.0000       2.259555        61.4856 
 128   0.0000       2.329811        63.3974 
 129   0.0000       2.357122        64.1406 
 130   0.0000       2.383090        64.8472 
 131   0.0000       2.433348        66.2148 
 132   0.0000       2.456286        66.8389 
 133   0.0000       2.493542        67.8527 
 134   0.0000       2.502962        68.1090 
 135   0.0000       2.548882        69.3586 
 136   0.0000       2.581044        70.2338 
 137   0.0000       2.596012        70.6411 
 138   0.0000       2.602183        70.8090 
 139   0.0000       2.629905        71.5633 
 140   0.0000       2.646688        72.0200 
 141   0.0000       2.694816        73.3297 
 142   0.0000       2.801311        76.2275 
 143   0.0000       2.815772        76.6210 
 144   0.0000       2.911522        79.2265 
 145   0.0000       2.937859        79.9432 
 146   0.0000       2.938921        79.9721 
 147   0.0000       2.986044        81.2544 
 148   0.0000       3.018973        82.1504 
 149   0.0000       3.060476        83.2798 
 150   0.0000       3.107851        84.5689 
 151   0.0000       3.141413        85.4822 
 152   0.0000       3.162744        86.0626 
 153   0.0000       3.221550        87.6628 
 154   0.0000       3.280135        89.2570 
 155   0.0000       3.301161        89.8291 
 156   0.0000       3.360011        91.4305 
 157   0.0000       3.364556        91.5542 
 158   0.0000       3.372740        91.7769 
 159   0.0000       3.404180        92.6324 
 160   0.0000       3.492635        95.0394 
 161   0.0000       3.534810        96.1871 
 162   0.0000       3.647755        99.2605 
 163   0.0000       3.670355        99.8754 
 164   0.0000       3.786970       103.0487 
 165   0.0000       3.887642       105.7881 
 166   0.0000       3.960245       107.7638 
 167   0.0000       4.078908       110.9927 
 168   0.0000       4.185105       113.8825 
 169   0.0000       4.254376       115.7675 

                    ********************************
                    * MULLIKEN POPULATION ANALYSIS *
                    ********************************

-----------------------
MULLIKEN ATOMIC CHARGES
-----------------------
   0 C :   -0.083442
   1 C :    0.017758
   2 C :   -0.350342
   3 C :    0.324616
   4 O :   -0.395101
   5 C :   -0.098825
   6 C :    0.029456
   7 C :    0.673574
   8 O :   -0.346748
   9 O :   -0.450454
  10 H :    0.046706
  11 H :    0.025261
  12 H :    0.260921
  13 H :    0.058742
  14 H :    0.058256
  15 H :    0.229621
Sum of atomic charges:   -0.0000000

--------------------------------
MULLIKEN REDUCED ORBITAL CHARGES
--------------------------------
  0 C s       :     3.129814  s :     3.129814
      pz      :     1.052370  p :     2.911267
      px      :     0.930910
      py      :     0.927987
      dz2     :     0.003603  d :     0.042360
      dxz     :     0.003794
      dyz     :     0.005608
      dx2y2   :     0.014607
      dxy     :     0.014749
  1 C s       :     3.129887  s :     3.129887
      pz      :     0.936002  p :     2.807653
      px      :     0.907051
      py      :     0.964600
      dz2     :     0.003821  d :     0.044702
      dxz     :     0.004725
      dyz     :     0.008059
      dx2y2   :     0.013303
      dxy     :     0.014794
  2 C s       :     3.062697  s :     3.062697
      pz      :     1.199569  p :     3.242389
      px      :     1.015780
      py      :     1.027040
      dz2     :     0.004296  d :     0.045256
      dxz     :     0.006901
      dyz     :     0.002941
      dx2y2   :     0.017082
      dxy     :     0.014035
  3 C s       :     3.008868  s :     3.008868
      pz      :     0.827981  p :     2.577897
      px      :     0.780414
      py      :     0.969502
      dz2     :     0.006641  d :     0.088619
      dxz     :     0.017437
      dyz     :     0.010402
      dx2y2   :     0.027322
      dxy     :     0.026817
  4 O s       :     3.722374  s :     3.722374
      pz      :     1.850248  p :     4.657765
      px      :     1.463792
      py      :     1.343725
      dz2     :     0.002298  d :     0.014961
      dxz     :     0.002379
      dyz     :     0.000309
      dx2y2   :     0.006784
      dxy     :     0.003192
  5 C s       :     3.197928  s :     3.197928
      pz      :     1.051526  p :     2.860396
      px      :     0.894169
      py      :     0.914701
      dz2     :     0.003606  d :     0.040501
      dxz     :     0.004340
      dyz     :     0.004721
      dx2y2   :     0.015571
      dxy     :     0.012263
  6 C s       :     3.120545  s :     3.120545
      pz      :     0.901058  p :     2.804052
      px      :     0.956685
      py      :     0.946309
      dz2     :     0.003731  d :     0.045947
      dxz     :     0.009001
      dyz     :     0.003453
      dx2y2   :     0.015246
      dxy     :     0.014516
  7 C s       :     2.965008  s :     2.965008
      pz      :     0.652432  p :     2.207732
      px      :     0.722998
      py      :     0.832302
      dz2     :     0.009128  d :     0.153686
      dxz     :     0.032881
      dyz     :     0.012505
      dx2y2   :     0.052981
      dxy     :     0.046191
  8 O s       :     3.700792  s :     3.700792
      pz      :     1.837385  p :     4.631661
      px      :     1.165460
      py      :     1.628816
      dz2     :     0.002324  d :     0.014295
      dxz     :     0.000849
      dyz     :     0.001791
      dx2y2   :     0.000911
      dxy     :     0.008421
  9 O s       :     3.789887  s :     3.789887
      pz      :     1.505307  p :     4.640925
      px      :     1.397168
      py      :     1.738451
      dz2     :     0.002194  d :     0.019642
      dxz     :     0.004663
      dyz     :     0.001715
      dx2y2   :     0.004777
      dxy     :     0.006292
 10 H s       :     0.927446  s :     0.927446
      pz      :     0.004444  p :     0.025848
      px      :     0.014948
      py      :     0.006456
 11 H s       :     0.948979  s :     0.948979
      pz      :     0.004293  p :     0.025761
      px      :     0.015989
      py      :     0.005479
 12 H s       :     0.660074  s :     0.660074
      pz      :     0.015250  p :     0.079004
      px      :     0.012109
      py      :     0.051645
 13 H s       :     0.915280  s :     0.915280
      pz      :     0.004043  p :     0.025978
      px      :     0.015310
      py      :     0.006626
 14 H s       :     0.916354  s :     0.916354
      pz      :     0.003422  p :     0.025389
      px      :     0.002424
      py      :     0.019544
 15 H s       :     0.697900  s :     0.697900
      pz      :     0.016197  p :     0.072479
      px      :     0.036839
      py      :     0.019443


                     *******************************
                     * LOEWDIN POPULATION ANALYSIS *
                     *******************************

----------------------
LOEWDIN ATOMIC CHARGES
----------------------
   0 C :   -0.065158
   1 C :    0.013017
   2 C :   -0.168298
   3 C :    0.157615
   4 O :   -0.128164
   5 C :   -0.055824
   6 C :    0.030473
   7 C :    0.248446
   8 O :   -0.086331
   9 O :   -0.265037
  10 H :    0.029146
  11 H :    0.022001
  12 H :    0.083564
  13 H :    0.040480
  14 H :    0.036084
  15 H :    0.107986

-------------------------------
LOEWDIN REDUCED ORBITAL CHARGES
-------------------------------
  0 C s       :     2.848095  s :     2.848095
      pz      :     1.030007  p :     3.120784
      px      :     1.046252
      py      :     1.044525
      dz2     :     0.007061  d :     0.096279
      dxz     :     0.006333
      dyz     :     0.010665
      dx2y2   :     0.035922
      dxy     :     0.036298
  1 C s       :     2.851144  s :     2.851144
      pz      :     0.929795  p :     3.035224
      px      :     1.034239
      py      :     1.071189
      dz2     :     0.007084  d :     0.100615
      dxz     :     0.008969
      dyz     :     0.015232
      dx2y2   :     0.032678
      dxy     :     0.036654
  2 C s       :     2.849336  s :     2.849336
      pz      :     1.124804  p :     3.213312
      px      :     1.066461
      py      :     1.022046
      dz2     :     0.009081  d :     0.105651
      dxz     :     0.013087
      dyz     :     0.005387
      dx2y2   :     0.042085
      dxy     :     0.036011
  3 C s       :     2.833223  s :     2.833223
      pz      :     0.849185  p :     2.827584
      px      :     0.927931
      py      :     1.050468
      dz2     :     0.012261  d :     0.181579
      dxz     :     0.033112
      dyz     :     0.019226
      dx2y2   :     0.060626
      dxy     :     0.056354
  4 O s       :     3.425010  s :     3.425010
      pz      :     1.808313  p :     4.678017
      px      :     1.491155
      py      :     1.378550
      dz2     :     0.003733  d :     0.025137
      dxz     :     0.002806
      dyz     :     0.000407
      dx2y2   :     0.012255
      dxy     :     0.005936
  5 C s       :     2.851903  s :     2.851903
      pz      :     1.023359  p :     3.111126
      px      :     1.050818
      py      :     1.036949
      dz2     :     0.007279  d :     0.092795
      dxz     :     0.006933
      dyz     :     0.008638
      dx2y2   :     0.037915
      dxy     :     0.032029
  6 C s       :     2.855479  s :     2.855479
      pz      :     0.889745  p :     3.012676
      px      :     1.074685
      py      :     1.048246
      dz2     :     0.007023  d :     0.101372
      dxz     :     0.017652
      dyz     :     0.005114
      dx2y2   :     0.037609
      dxy     :     0.033974
  7 C s       :     2.835494  s :     2.835494
      pz      :     0.687241  p :     2.607484
      px      :     0.920096
      py      :     1.000147
      dz2     :     0.018057  d :     0.308575
      dxz     :     0.058364
      dyz     :     0.022800
      dx2y2   :     0.111960
      dxy     :     0.097395
  8 O s       :     3.402804  s :     3.402804
      pz      :     1.779676  p :     4.657935
      px      :     1.231795
      py      :     1.646464
      dz2     :     0.004059  d :     0.025593
      dxz     :     0.001569
      dyz     :     0.001289
      dx2y2   :     0.002743
      dxy     :     0.015933
  9 O s       :     3.540507  s :     3.540507
      pz      :     1.484882  p :     4.694413
      px      :     1.481715
      py      :     1.727816
      dz2     :     0.004408  d :     0.030117
      dxz     :     0.004920
      dyz     :     0.001689
      dx2y2   :     0.007535
      dxy     :     0.011565
 10 H s       :     0.901588  s :     0.901588
      pz      :     0.015501  p :     0.069266
      px      :     0.035724
      py      :     0.018040
 11 H s       :     0.908634  s :     0.908634
      pz      :     0.013774  p :     0.069365
      px      :     0.037961
      py      :     0.017629
 12 H s       :     0.699953  s :     0.699953
      pz      :     0.045762  p :     0.216483
      px      :     0.040202
      py      :     0.130519
 13 H s       :     0.889020  s :     0.889020
      pz      :     0.015060  p :     0.070501
      px      :     0.036827
      py      :     0.018614
 14 H s       :     0.896298  s :     0.896298
      pz      :     0.011835  p :     0.067617
      px      :     0.010368
      py      :     0.045414
 15 H s       :     0.709479  s :     0.709479
      pz      :     0.046869  p :     0.182534
      px      :     0.079768
      py      :     0.055897


                      *****************************
                      * MAYER POPULATION ANALYSIS *
                      *****************************

  NA   - Mulliken gross atomic population
  ZA   - Total nuclear charge
  QA   - Mulliken gross atomic charge
  VA   - Mayer's total valence
  BVA  - Mayer's bonded valence
  FA   - Mayer's free valence

  ATOM       NA         ZA         QA         VA         BVA        FA
  0 C      6.0834     6.0000    -0.0834     3.9275     3.9275     0.0000
  1 C      5.9822     6.0000     0.0178     3.9168     3.9168    -0.0000
  2 C      6.3503     6.0000    -0.3503     3.5872     3.5872    -0.0000
  3 C      5.6754     6.0000     0.3246     4.0245     4.0245    -0.0000
  4 O      8.3951     8.0000    -0.3951     2.0797     2.0797    -0.0000
  5 C      6.0988     6.0000    -0.0988     3.8916     3.8916    -0.0000
  6 C      5.9705     6.0000     0.0295     3.8347     3.8347    -0.0000
  7 C      5.3264     6.0000     0.6736     4.0444     4.0444    -0.0000
  8 O      8.3467     8.0000    -0.3467     2.0990     2.0990     0.0000
  9 O      8.4505     8.0000    -0.4505     2.0081     2.0081    -0.0000
 10 H      0.9533     1.0000     0.0467     0.9872     0.9872     0.0000
 11 H      0.9747     1.0000     0.0253     0.9977     0.9977    -0.0000
 12 H      0.7391     1.0000     0.2609     1.0049     1.0049    -0.0000
 13 H      0.9413     1.0000     0.0587     0.9984     0.9984    -0.0000
 14 H      0.9417     1.0000     0.0583     0.9847     0.9847    -0.0000
 15 H      0.7704     1.0000     0.2296     0.9882     0.9882    -0.0000

  Mayer bond orders larger than 0.100000
B(  0-C ,  1-C ) :   1.5046 B(  0-C ,  6-C ) :   1.3672 B(  0-C , 10-H ) :   0.9992 
B(  1-C ,  2-C ) :   1.3171 B(  1-C , 11-H ) :   0.9939 B(  2-C ,  3-C ) :   1.3354 
B(  2-C ,  7-C ) :   0.9684 B(  3-C ,  4-O ) :   1.1689 B(  3-C ,  5-C ) :   1.3836 
B(  4-O , 12-H ) :   0.8925 B(  5-C ,  6-C ) :   1.4378 B(  5-C , 13-H ) :   1.0046 
B(  6-C , 14-H ) :   0.9975 B(  7-C ,  8-O ) :   1.1484 B(  7-C ,  9-O ) :   1.8701 
B(  8-O , 15-H ) :   0.9382 

-------
TIMINGS
-------

Total SCF time: 0 days 0 hours 0 min 18 sec 

Total time                  ....      18.775 sec
Sum of individual times     ....      18.668 sec  ( 99.4%)

Fock matrix formation       ....      18.402 sec  ( 98.0%)
Diagonalization             ....       0.018 sec  (  0.1%)
Density matrix formation    ....       0.002 sec  (  0.0%)
Population analysis         ....       0.004 sec  (  0.0%)
Initial guess               ....       0.128 sec  (  0.7%)
Orbital Transformation      ....       0.000 sec  (  0.0%)
Orbital Orthonormalization  ....       0.000 sec  (  0.0%)
DIIS solution               ....       0.009 sec  (  0.0%)
SOSCF solution              ....       0.014 sec  (  0.1%)

Maximum memory used throughout the entire SCF-calculation: 245.8 MB

-------------------------   --------------------
FINAL SINGLE POINT ENERGY      -492.800748084528
-------------------------   --------------------

------------------------------------------------------------------------------
                         ORCA SCF GRADIENT CALCULATION
------------------------------------------------------------------------------

Gradient of the Hartree-Fock SCF energy:
Hartree-Fock type                ... RHF
Number of operators              ...    1
Number of atoms                  ...   16
Basis set dimensions             ...  170
Integral neglect threshold       ... 2.5e-11
Integral primitive cutoff        ... 2.5e-12
SHARK Integral package           ... ON

Nuc. rep. gradient       (SHARK) ... done (  0.0 sec)
HCore & Overlap gradient (SHARK) ... done (  0.1 sec)
Two-Electron gradient    (SHARK) ... done (  6.5 sec)

------------------
CARTESIAN GRADIENT
------------------

   1   C   :   -0.010331981   -0.013280553   -0.000000000
   2   C   :    0.005832523    0.025035262    0.000000000
   3   C   :   -0.002551138   -0.002926360   -0.000000000
   4   C   :    0.047357886   -0.013817244   -0.000000000
   5   O   :   -0.042135811   -0.008972440    0.000000000
   6   C   :   -0.012003038    0.012615142   -0.000000000
   7   C   :    0.011187319   -0.009663900   -0.000000000
   8   C   :    0.021681112   -0.018285002    0.000000000
   9   O   :    0.009999161    0.011600920    0.000000000
  10   O   :   -0.065981151    0.014151283   -0.000000000
  11   H   :    0.003582576   -0.004046642    0.000000000
  12   H   :    0.002460050   -0.002025027    0.000000000
  13   H   :    0.002515453    0.027722026   -0.000000000
  14   H   :   -0.002825471   -0.006498403    0.000000000
  15   H   :   -0.000063312   -0.004214141    0.000000000
  16   H   :    0.031275822   -0.007394921   -0.000000000

Difference to translation invariance:
           :   -0.0000000000   -0.0000000000    0.0000000000

Difference to rotation invariance:
           :    0.0000000000   -0.0000000000    0.0000002200

Norm of the cartesian gradient     ...    0.1152308211
RMS gradient                       ...    0.0166321364
MAX gradient                       ...    0.0659811507

-------
TIMINGS
-------

Total SCF gradient time            ...        6.626 sec

One electron gradient       ....       0.069 sec  (  1.0%)
Two electron gradient       ....       6.535 sec  ( 98.6%)

Maximum memory used throughout the entire SCFGRAD-calculation: 33.4 MB
------------------------------------------------------------------------------
                         ORCA GEOMETRY RELAXATION STEP
------------------------------------------------------------------------------

Reading the OPT-File                    .... done
Getting information on internals        .... done
Copying old internal coords+grads       .... done
Making the new internal coordinates     .... (new redundants).... done
Validating the new internal coordinates .... (new redundants).... done
Calculating the B-matrix                .... done
Calculating the G,G- and P matrices     .... done
Transforming gradient to internals      .... done
Projecting the internal gradient        .... done
Number of atoms                         ....  16
Number of internal coordinates          ....  71
Current Energy                          ....  -492.800748085 Eh
Current gradient norm                   ....     0.115230821 Eh/bohr
Maximum allowed component of the step   ....  0.300
Current trust radius                    ....  0.300
Evaluating the initial hessian          ....  (Almloef) done
Projecting the Hessian                  .... done
Forming the augmented Hessian           .... done
Diagonalizing the augmented Hessian     .... done
Last element of RFO vector              ....  0.985484656
Lowest eigenvalues of augmented Hessian:
 -0.017740031  0.012574611  0.019118166  0.020386158  0.024040361
Length of the computed step             ....  0.172265006
The final length of the internal step   ....  0.172265006
Converting the step to cartesian space:
 Initial RMS(Int)=    0.0204440950
Transforming coordinates:
 Iter   0:  RMS(Cart)=    0.0457811262 RMS(Int)=    1.9729792283
 Iter   1:  RMS(Cart)=    0.0012729297 RMS(Int)=    0.0008153864
 Iter   2:  RMS(Cart)=    0.0000597206 RMS(Int)=    0.0000407473
 Iter   3:  RMS(Cart)=    0.0000044571 RMS(Int)=    0.0000027972
 Iter   4:  RMS(Cart)=    0.0000002359 RMS(Int)=    0.0000001901
 Iter   5:  RMS(Cart)=    0.0000000162 RMS(Int)=    0.0000000089
done
Storing new coordinates                 .... done

                                .--------------------.
          ----------------------|Geometry convergence|-------------------------
          Item                value                   Tolerance       Converged
          ---------------------------------------------------------------------
          RMS gradient        0.0128478048            0.0001000000      NO
          MAX gradient        0.0651206799            0.0003000000      NO
          RMS step            0.0204440950            0.0020000000      NO
          MAX step            0.0711205652            0.0040000000      NO
          ........................................................
          Max(Bonds)      0.0376      Max(Angles)    2.74
          Max(Dihed)        0.00      Max(Improp)    0.00
          ---------------------------------------------------------------------

The optimization has not yet converged - more geometry cycles are needed


    ---------------------------------------------------------------------------
                         Redundant Internal Coordinates
                            (Angstroem and degrees)

        Definition                    Value    dE/dq     Step     New-Value
    ----------------------------------------------------------------------------
     1. B(C   1,C   0)                1.4008  0.022594 -0.0196    1.3812   
     2. B(C   2,C   1)                1.4047  0.003052 -0.0026    1.4020   
     3. B(C   3,C   2)                1.4079 -0.002883  0.0028    1.4107   
     4. B(O   4,C   3)                1.3717  0.043827 -0.0376    1.3341   
     5. B(C   5,C   3)                1.3950  0.002358 -0.0017    1.3933   
     6. B(C   6,C   5)                1.3917  0.011977 -0.0099    1.3818   
     7. B(C   6,C   0)                1.3925  0.000867 -0.0010    1.3916   
     8. B(C   7,C   2)                1.4924  0.000258 -0.0003    1.4921   
     9. B(O   8,C   7)                1.3460  0.037461 -0.0293    1.3166   
    10. B(O   9,C   7)                1.2246  0.065121 -0.0330    1.1916   
    11. B(H  10,C   0)                1.0882  0.005108 -0.0071    1.0811   
    12. B(H  11,C   1)                1.0831  0.001263 -0.0017    1.0814   
    13. B(H  12,O   4)                0.9842  0.027835 -0.0298    0.9543   
    14. B(H  13,C   5)                1.0873  0.005741 -0.0080    1.0793   
    15. B(H  14,C   6)                1.0873  0.004213 -0.0058    1.0815   
    16. B(H  15,O   8)                0.9697  0.030691 -0.0313    0.9384   
    17. A(C   6,C   0,H  10)          119.59 -0.004065    0.63    120.22   
    18. A(C   1,C   0,H  10)          120.02 -0.000430    0.07    120.09   
    19. A(C   1,C   0,C   6)          120.39  0.004495   -0.70    119.69   
    20. A(C   0,C   1,C   2)          120.49 -0.007201    0.93    121.43   
    21. A(C   2,C   1,H  11)          122.94  0.006594   -0.93    122.01   
    22. A(C   0,C   1,H  11)          116.56  0.000607   -0.00    116.56   
    23. A(C   3,C   2,C   7)          118.39 -0.011700    1.57    119.96   
    24. A(C   1,C   2,C   3)          118.22  0.001838   -0.21    118.02   
    25. A(C   1,C   2,C   7)          123.38  0.009862   -1.37    122.02   
    26. A(C   2,C   3,O   4)          123.70 -0.003969    0.48    124.18   
    27. A(O   4,C   3,C   5)          115.22 -0.002575    0.29    115.51   
    28. A(C   2,C   3,C   5)          121.08  0.006544   -0.77    120.31   
    29. A(C   3,O   4,H  12)          108.70  0.000459   -0.07    108.63   
    30. A(C   3,C   5,C   6)          120.02 -0.001490    0.23    120.25   
    31. A(C   6,C   5,H  13)          120.20 -0.003522    0.54    120.74   
    32. A(C   3,C   5,H  13)          119.79  0.005013   -0.78    119.01   
    33. A(C   5,C   6,H  14)          119.92  0.001973   -0.24    119.68   
    34. A(C   0,C   6,H  14)          120.29  0.002213   -0.27    120.02   
    35. A(C   0,C   6,C   5)          119.79 -0.004186    0.51    120.30   
    36. A(O   8,C   7,O   9)          121.42  0.022944   -2.74    118.68   
    37. A(C   2,C   7,O   9)          120.82 -0.018002    2.16    122.99   
    38. A(C   2,C   7,O   8)          117.76 -0.004942    0.58    118.34   
    39. A(C   7,O   8,H  15)          118.16  0.017472   -2.57    115.59   
    40. D(H  11,C   1,C   0,H  10)      0.00 -0.000000    0.00      0.00   
    41. D(C   2,C   1,C   0,C   6)      0.00 -0.000000    0.00      0.00   
    42. D(C   2,C   1,C   0,H  10)    180.00  0.000000   -0.00    180.00   
    43. D(H  11,C   1,C   0,C   6)    180.00 -0.000000    0.00    180.00   
    44. D(C   3,C   2,C   1,C   0)      0.00  0.000000   -0.00     -0.00   
    45. D(C   7,C   2,C   1,H  11)      0.00  0.000000   -0.00     -0.00   
    46. D(C   3,C   2,C   1,H  11)    180.00  0.000000   -0.00    180.00   
    47. D(C   7,C   2,C   1,C   0)    180.00  0.000000   -0.00    180.00   
    48. D(C   5,C   3,C   2,C   7)    180.00  0.000000   -0.00    180.00   
    49. D(C   5,C   3,C   2,C   1)      0.00  0.000000   -0.00     -0.00   
    50. D(O   4,C   3,C   2,C   7)      0.00 -0.000000    0.00      0.00   
    51. D(O   4,C   3,C   2,C   1)    180.00 -0.000000    0.00    180.00   
    52. D(H  12,O   4,C   3,C   5)    180.00 -0.000000    0.00    180.00   
    53. D(H  12,O   4,C   3,C   2)      0.00  0.000000   -0.00     -0.00   
    54. D(C   6,C   5,C   3,C   2)      0.00 -0.000000    0.00      0.00   
    55. D(H  13,C   5,C   3,O   4)      0.00 -0.000000    0.00      0.00   
    56. D(H  13,C   5,C   3,C   2)    180.00 -0.000000    0.00    180.00   
    57. D(C   6,C   5,C   3,O   4)    180.00  0.000000   -0.00    180.00   
    58. D(H  14,C   6,C   5,H  13)      0.00  0.000000   -0.00     -0.00   
    59. D(H  14,C   6,C   5,C   3)    180.00 -0.000000    0.00    180.00   
    60. D(C   0,C   6,C   5,H  13)    180.00  0.000000   -0.00    180.00   
    61. D(C   0,C   6,C   5,C   3)      0.00  0.000000   -0.00     -0.00   
    62. D(H  14,C   6,C   0,H  10)      0.00  0.000000   -0.00     -0.00   
    63. D(H  14,C   6,C   0,C   1)    180.00  0.000000   -0.00    180.00   
    64. D(C   5,C   6,C   0,H  10)    180.00 -0.000000    0.00    180.00   
    65. D(C   5,C   6,C   0,C   1)      0.00  0.000000   -0.00     -0.00   
    66. D(O   9,C   7,C   2,C   3)      0.00 -0.000000    0.00      0.00   
    67. D(O   9,C   7,C   2,C   1)    180.00 -0.000000    0.00    180.00   
    68. D(O   8,C   7,C   2,C   3)    180.00  0.000000   -0.00    180.00   
    69. D(O   8,C   7,C   2,C   1)      0.00  0.000000   -0.00     -0.00   
    70. D(H  15,O   8,C   7,C   2)      0.00  0.000000    0.00      0.00   
    71. D(H  15,O   8,C   7,O   9)    180.00  0.000000   -0.00    180.00   
    ----------------------------------------------------------------------------

         *************************************************************
         *                GEOMETRY OPTIMIZATION CYCLE   2            *
         *************************************************************
---------------------------------
CARTESIAN COORDINATES (ANGSTROEM)
---------------------------------
  C      4.004406    1.132234    0.000000
  C      3.969709    2.512985   -0.000000
  C      2.755343    3.213733    0.000000
  C      1.558901    2.466330    0.000000
  O      0.338573    3.005353   -0.000000
  C      1.599723    1.073607    0.000000
  C      2.813241    0.412840    0.000000
  C      2.702494    4.704853   -0.000000
  O      3.838510    5.370450    0.000000
  O      1.680623    5.317838    0.000000
  H      4.953146    0.613836   -0.000000
  H      4.924512    3.020663   -0.000000
  H      0.425125    3.955748   -0.000000
  H      0.671551    0.522725   -0.000000
  H      2.834228   -0.668439   -0.000000
  H      4.616096    4.845143    0.000000

----------------------------
CARTESIAN COORDINATES (A.U.)
----------------------------
  NO LB      ZA    FRAG     MASS         X           Y           Z
   0 C     6.0000    0    12.011    7.567231    2.139612    0.000000
   1 C     6.0000    0    12.011    7.501663    4.748854   -0.000000
   2 C     6.0000    0    12.011    5.206844    6.073075    0.000000
   3 C     6.0000    0    12.011    2.945895    4.660687    0.000000
   4 O     8.0000    0    15.999    0.639810    5.679295   -0.000000
   5 C     6.0000    0    12.011    3.023037    2.028824    0.000000
   6 C     6.0000    0    12.011    5.316255    0.780154    0.000000
   7 C     6.0000    0    12.011    5.106973    8.890884   -0.000000
   8 O     8.0000    0    15.999    7.253732   10.148680    0.000000
   9 O     8.0000    0    15.999    3.175916   10.049258    0.000000
  10 H     1.0000    0     1.008    9.360089    1.159981   -0.000000
  11 H     1.0000    0     1.008    9.305980    5.708226   -0.000000
  12 H     1.0000    0     1.008    0.803371    7.475281   -0.000000
  13 H     1.0000    0     1.008    1.269048    0.987807   -0.000000
  14 H     1.0000    0     1.008    5.355915   -1.263166   -0.000000
  15 H     1.0000    0     1.008    8.723156    9.155993    0.000000

--------------------------------
INTERNAL COORDINATES (ANGSTROEM)
--------------------------------
 C      0   0   0     0.000000000000     0.00000000     0.00000000
 C      1   0   0     1.381187326300     0.00000000     0.00000000
 C      2   1   0     1.402045379547   121.42651046     0.00000000
 C      3   2   1     1.410704169564   118.02046983     0.00000000
 O      4   3   2     1.334071502584   124.17623823   180.00000000
 C      4   3   2     1.393320246388   120.31361021     0.00000000
 C      6   4   3     1.381752954117   120.24745084     0.00000000
 C      3   2   1     1.492056634671   122.01687382   180.00000000
 O      8   3   2     1.316644185702   118.33638284     0.00000000
 O      8   3   2     1.191625601604   122.98794423   180.00000000
 H      1   2   3     1.081130824530   120.09201362   180.00000000
 H      2   1   3     1.081381607334   116.56049187   180.00000000
 H      5   4   3     0.954327963680   108.62764958     0.00000000
 H      6   4   3     1.079339420029   119.01079264   180.00000000
 H      7   6   4     1.081482223897   119.68049076   180.00000000
 H      9   8   3     0.938396452328   115.59226722     0.00000000

---------------------------
INTERNAL COORDINATES (A.U.)
---------------------------
 C      0   0   0     0.000000000000     0.00000000     0.00000000
 C      1   0   0     2.610065786350     0.00000000     0.00000000
 C      2   1   0     2.649481794673   121.42651046     0.00000000
 C      3   2   1     2.665844536458   118.02046983     0.00000000
 O      4   3   2     2.521029782952   124.17623823   180.00000000
 C      4   3   2     2.632993682520   120.31361021     0.00000000
 C      6   4   3     2.611134668018   120.24745084     0.00000000
 C      3   2   1     2.819578415827   122.01687382   180.00000000
 O      8   3   2     2.488096926797   118.33638284     0.00000000
 O      8   3   2     2.251846041200   122.98794423   180.00000000
 H      1   2   3     2.043041173303   120.09201362   180.00000000
 H      2   1   3     2.043515084121   116.56049187   180.00000000
 H      5   4   3     1.803418493299   108.62764958     0.00000000
 H      6   4   3     2.039655909401   119.01079264   180.00000000
 H      7   6   4     2.043705221870   119.68049076   180.00000000
 H      9   8   3     1.773312299942   115.59226722     0.00000000

------------------------------------------------------------------------------
                   ___                                                        
                  /   \      - P O W E R E D   B Y -                         
                 /     \                                                     
                 |  |  |   _    _      __       _____    __    __             
                 |  |  |  | |  | |    /  \     |  _  \  |  |  /  |          
                  \  \/   | |  | |   /    \    | | | |  |  | /  /          
                 / \  \   | |__| |  /  /\  \   | |_| |  |  |/  /          
                |  |  |   |  __  | /  /__\  \  |    /   |      \           
                |  |  |   | |  | | |   __   |  |    \   |  |\   \          
                \     /   | |  | | |  |  |  |  | |\  \  |  | \   \       
                 \___/    |_|  |_| |__|  |__|  |_| \__\ |__|  \__/        
                                                                              
                      - O R C A' S   B I G   F R I E N D -                    
                                      &                                       
                       - I N T E G R A L  F E E D E R -                       
                                                                              
 v1 FN, 2020, v2 2021                                                         
------------------------------------------------------------------------------


Reading SHARK input file salicylic_acid.SHARKINP.tmp ... ok
----------------------
SHARK INTEGRAL PACKAGE
----------------------

Number of atoms                             ...     16
Number of basis functions                   ...    170
Number of shells                            ...     78
Maximum angular momentum                    ...      2
Integral batch strategy                     ... SHARK/LIBINT Hybrid
RI-J (if used) integral strategy            ... SPLIT-RIJ (Revised 2003 algorithm where possible)
Printlevel                                  ...      1
Contraction scheme used                     ... SEGMENTED contraction
Coulomb Range Separation                    ... NOT USED
Exchange Range Separation                   ... NOT USED
Finite Nucleus Model                        ... NOT USED
Auxiliary Coulomb fitting basis             ... NOT available
Auxiliary J/K fitting basis                 ... NOT available
Auxiliary Correlation fitting basis         ... NOT available
Auxiliary 'external' fitting basis          ... NOT available
Integral threshold                          ...     2.500000e-11
Primitive cut-off                           ...     2.500000e-12
Primitive pair pre-selection threshold      ...     2.500000e-12

Calculating pre-screening integrals         ... done (  0.0 sec) Dimension = 78
Organizing shell pair data                  ... done (  0.0 sec)
Shell pair information
Total number of shell pairs                 ...      3081
Shell pairs after pre-screening             ...      2844
Total number of primitive shell pairs       ...     11473
Primitive shell pairs kept                  ...      7612
          la=0 lb=0:    827 shell pairs
          la=1 lb=0:   1020 shell pairs
          la=1 lb=1:    331 shell pairs
          la=2 lb=0:    378 shell pairs
          la=2 lb=1:    238 shell pairs
          la=2 lb=2:     50 shell pairs

Calculating one electron integrals          ... done (  0.0 sec)
Calculating Nuclear repulsion               ... done (  0.0 sec) ENN=    505.090565093664 Eh

SHARK setup successfully completed in   0.1 seconds

Maximum memory used throughout the entire GTOINT-calculation: 22.3 MB

Diagonalization of the overlap matrix:
Smallest eigenvalue                        ... 2.450e-04
Time for diagonalization                   ...    0.002 sec
Threshold for overlap eigenvalues          ... 1.000e-08
Number of eigenvalues below threshold      ... 0
Time for construction of square roots      ...    0.001 sec
Total time needed                          ...    0.003 sec

--------------
SCF ITERATIONS
--------------
ITER       Energy         Delta-E        Max-DP      RMS-DP      [F,P]     Damp
               ***  Starting incremental Fock matrix formation  ***
  0   -492.8035080882   0.000000000000 0.00696157  0.00025535  0.0325843 0.7000
                      *** Initiating the SOSCF procedure ***
                      *** Re-Reading the Fockian *** 
                      *** Removing any level shift *** 
ITER      Energy       Delta-E        Grad      Rot      Max-DP    RMS-DP
  1   -492.80507444  -0.0015663524  0.001507  0.001507  0.020736  0.000709
               *** Restarting incremental Fock matrix formation ***
  2   -492.80948136  -0.0044069215  0.001940  0.002201  0.006569  0.000203
  3   -492.80978514  -0.0003037779  0.000716  0.001227  0.003852  0.000121
  4   -492.80982853  -0.0000433896  0.000361  0.000328  0.000809  0.000026
  5   -492.80983398  -0.0000054495  0.000113  0.000318  0.000374  0.000010
  6   -492.80983465  -0.0000006692  0.000066  0.000245  0.000193  0.000006
  7   -492.80983482  -0.0000001671  0.000029  0.000110  0.000055  0.000002
  8   -492.80983484  -0.0000000223  0.000012  0.000031  0.000032  0.000001
  9   -492.80983484  -0.0000000057  0.000004  0.000020  0.000015  0.000001
                 **** Energy Check signals convergence ****
              ***Rediagonalizing the Fockian in SOSCF/NRSCF***

               *****************************************************
               *                     SUCCESS                       *
               *           SCF CONVERGED AFTER  10 CYCLES          *
               *****************************************************

Total Energy       :         -492.80983484 Eh          -13410.03736 eV
  Last Energy change         ...   -9.1882e-10  Tolerance :   1.0000e-08
  Last MAX-Density change    ...    3.8878e-06  Tolerance :   1.0000e-07
             **** THE GBW FILE WAS UPDATED (salicylic_acid.gbw) ****
             **** DENSITY salicylic_acid.scfp WAS UPDATED ****
             **** ENERGY FILE WAS UPDATED (salicylic_acid.en.tmp) ****
             **** THE GBW FILE WAS UPDATED (salicylic_acid.gbw) ****
             **** DENSITY salicylic_acid.scfp WAS UPDATED ****
Total SCF time: 0 days 0 hours 0 min 13 sec 

Maximum memory used throughout the entire SCF-calculation: 245.8 MB

-------------------------   --------------------
FINAL SINGLE POINT ENERGY      -492.809834844191
-------------------------   --------------------

------------------------------------------------------------------------------
                         ORCA SCF GRADIENT CALCULATION
------------------------------------------------------------------------------

Gradient of the Hartree-Fock SCF energy:
Hartree-Fock type                ... RHF
Number of operators              ...    1
Number of atoms                  ...   16
Basis set dimensions             ...  170
Integral neglect threshold       ... 2.5e-11
Integral primitive cutoff        ... 2.5e-12
SHARK Integral package           ... ON

Nuc. rep. gradient       (SHARK) ... done (  0.0 sec)
HCore & Overlap gradient (SHARK) ... done (  0.1 sec)
Two-Electron gradient    (SHARK) ... done (  6.6 sec)

------------------
CARTESIAN GRADIENT
------------------

   1   C   :   -0.006021071   -0.002764368    0.000000000
   2   C   :    0.002063651    0.009614581   -0.000000000
   3   C   :   -0.000400072   -0.000100365    0.000000000
   4   C   :    0.014628062   -0.005180737    0.000000000
   5   O   :   -0.015424786   -0.003639876   -0.000000000
   6   C   :   -0.010491858    0.008811746   -0.000000000
   7   C   :    0.006640098   -0.004199022    0.000000000
   8   C   :    0.004297441   -0.000833031   -0.000000000
   9   O   :    0.000894852   -0.006816754    0.000000000
  10   O   :   -0.000322514    0.006133733    0.000000000
  11   H   :   -0.000210774   -0.000490313   -0.000000000
  12   H   :    0.000610477   -0.001838473   -0.000000000
  13   H   :    0.003763580   -0.001698800   -0.000000000
  14   H   :    0.001732464   -0.002019497   -0.000000000
  15   H   :    0.000003804    0.000422163   -0.000000000
  16   H   :   -0.001763354    0.004599013    0.000000000

Difference to translation invariance:
           :   -0.0000000000   -0.0000000000   -0.0000000000

Difference to rotation invariance:
           :   -0.0000000000   -0.0000000000    0.0000002600

Norm of the cartesian gradient     ...    0.0322330488
RMS gradient                       ...    0.0046524399
MAX gradient                       ...    0.0154247858

-------
TIMINGS
-------

Total SCF gradient time            ...        6.672 sec

One electron gradient       ....       0.065 sec  (  1.0%)
Two electron gradient       ....       6.582 sec  ( 98.7%)

Maximum memory used throughout the entire SCFGRAD-calculation: 33.5 MB
------------------------------------------------------------------------------
                         ORCA GEOMETRY RELAXATION STEP
[...]
     33       0.051172  -0.127983  -0.028646   0.375649   0.122736  -0.278224
     34      -0.303519   0.237167   0.140754  -0.559109  -0.022276   0.468764
     35      -0.000000   0.000000   0.000000  -0.000000   0.000000   0.000000
     36      -0.321745  -0.151008  -0.182363   0.499934  -0.064072   0.653800
     37       0.026369   0.012409   0.005137  -0.040910  -0.062947  -0.058961
     38      -0.000000  -0.000000  -0.000000   0.000000   0.000000   0.000000
     39      -0.121904   0.038607  -0.067662  -0.184442   0.299175   0.086391
     40       0.131415  -0.136506   0.154658   0.379808  -0.559684  -0.072429
     41       0.000000   0.000000  -0.000000   0.000000  -0.000000  -0.000000
     42       0.468718   0.279479   0.365989   0.099695   0.519545   0.335062
     43       0.027432   0.008135  -0.023590   0.010901  -0.110251  -0.002675
     44      -0.000000  -0.000000  -0.000000  -0.000000  -0.000000  -0.000000
     45       0.282764   0.413064  -0.399896   0.149550  -0.041676   0.094765
     46       0.297380   0.514769  -0.506336   0.199755  -0.065388   0.161300
     47       0.000000  -0.000000  -0.000000   0.000000  -0.000000   0.000000
                 36         37         38         39         40         41    
      0       0.016827  -0.020295   0.127052  -0.171535  -0.005911  -0.023100
      1      -0.019180  -0.185959   0.082684  -0.132916   0.252051  -0.015368
      2       0.000000  -0.000000  -0.000000   0.000000   0.000000   0.000000
      3      -0.020186   0.088815  -0.111657   0.102641   0.130673   0.031370
      4      -0.024564   0.058090   0.092094   0.019387  -0.319330  -0.005993
      5      -0.000000   0.000000   0.000000  -0.000000  -0.000000  -0.000000
      6       0.076362  -0.189148  -0.015868  -0.215021  -0.084938  -0.116034
      7       0.122378   0.048509  -0.121475  -0.073410   0.182439   0.063107
      8      -0.000000  -0.000000   0.000000   0.000000  -0.000000   0.000000
      9       0.051981   0.181853   0.160201   0.200225   0.042604   0.106657
     10       0.016453  -0.160637   0.008803   0.211748  -0.249207  -0.078589
     11       0.000000  -0.000000  -0.000000  -0.000000  -0.000000  -0.000000
     12      -0.087901  -0.048950  -0.064916  -0.050644  -0.000228  -0.024804
     13      -0.020937   0.062658  -0.001532  -0.034966   0.035760   0.019348
     14      -0.000000   0.000000   0.000000  -0.000000   0.000000   0.000000
     15       0.007650   0.048452  -0.089686  -0.183128  -0.157565  -0.041827
     16      -0.004385   0.067281   0.122220  -0.031238   0.260923   0.047754
     17      -0.000000  -0.000000   0.000000   0.000000   0.000000   0.000000
     18      -0.061037  -0.152478  -0.050108   0.323479   0.141053   0.040992
     19       0.007268   0.061497  -0.091786   0.031610  -0.127927  -0.007255
     20       0.000000   0.000000  -0.000000  -0.000000  -0.000000  -0.000000
     21      -0.134814  -0.029393   0.010266  -0.025179  -0.066893   0.628847
     22      -0.227317   0.038984   0.034601   0.029188   0.020516  -0.357072
     23       0.000000  -0.000000  -0.000000  -0.000000  -0.000000   0.000000
     24       0.084631  -0.002762  -0.004857   0.004866   0.003195  -0.044725
     25       0.093839  -0.000830  -0.004081   0.005197  -0.001392   0.032788
     26       0.000000   0.000000   0.000000   0.000000   0.000000  -0.000000
     27       0.007099   0.046673  -0.006511   0.023967   0.050747  -0.369623
     28       0.036813  -0.044148   0.000485  -0.019840  -0.037280   0.223824
     29      -0.000000   0.000000  -0.000000   0.000000   0.000000  -0.000000
     30       0.038052   0.358471  -0.113674   0.003143  -0.261123  -0.004772
     31       0.017537   0.467454  -0.397656   0.224869  -0.144975   0.027058
     32      -0.000000  -0.000000  -0.000000   0.000000   0.000000   0.000000
     33      -0.179903   0.097693   0.238774   0.041875  -0.295299   0.010072
     34       0.238695   0.091950  -0.535097   0.146885   0.397469   0.072587
     35       0.000000   0.000000  -0.000000   0.000000   0.000000   0.000000
     36       0.766718  -0.275320   0.294161   0.546507  -0.252242  -0.276132
     37      -0.047126   0.049264  -0.027963  -0.075471   0.019548   0.108391
     38       0.000000  -0.000000  -0.000000  -0.000000  -0.000000   0.000000
     39       0.069777   0.201673   0.224980  -0.143304   0.163256   0.041438
     40      -0.103752  -0.138797  -0.423933  -0.182503  -0.293577  -0.081934
     41      -0.000000  -0.000000  -0.000000  -0.000000  -0.000000  -0.000000
     42       0.196270   0.546623   0.154081  -0.475672  -0.188925  -0.027214
     43       0.011496   0.085278  -0.114062   0.025008  -0.163340  -0.009968
     44      -0.000000  -0.000000  -0.000000   0.000000   0.000000  -0.000000
     45      -0.198423   0.011092   0.052613  -0.001489  -0.006562  -0.243139
     46      -0.316989   0.024961   0.065137   0.000745  -0.000827  -0.284969
     47      -0.000000  -0.000000   0.000000  -0.000000  -0.000000   0.000000
                 42         43         44         45         46         47    
      0       0.022393   0.021079  -0.065996   0.027501   0.000858  -0.000258
      1      -0.009340  -0.016206   0.036817  -0.013454   0.000737   0.000020
      2      -0.000000  -0.000000   0.000000  -0.000000  -0.000000   0.000000
      3      -0.071716   0.017384  -0.015940   0.006656   0.000325   0.000707
      4      -0.039794   0.011085  -0.013534   0.005661  -0.000554   0.000090
      5       0.000000  -0.000000   0.000000  -0.000000   0.000000   0.000000
      6       0.002766  -0.001043   0.001297  -0.000245   0.000448   0.000108
      7      -0.001815   0.000061  -0.000487  -0.000027   0.001406   0.000370
      8       0.000000  -0.000000   0.000000  -0.000000   0.000000  -0.000000
      9       0.000741  -0.000087  -0.000252  -0.000688  -0.002963  -0.000196
     10       0.000574   0.000940   0.001876   0.003948   0.002689  -0.000021
     11       0.000000   0.000000   0.000000   0.000000   0.000000  -0.000000
     12      -0.000322  -0.000102   0.000096   0.000194   0.003574   0.000062
     13      -0.000164  -0.000136  -0.000258  -0.000471   0.062037   0.000741
     14      -0.000000  -0.000000  -0.000000  -0.000000   0.000000  -0.000000
     15      -0.002844  -0.018829  -0.034087  -0.066703   0.001393  -0.000048
     16      -0.002011  -0.014996  -0.020826  -0.035919  -0.002241   0.000013
     17       0.000000   0.000000   0.000000   0.000000   0.000000  -0.000000
     18      -0.000573  -0.001444   0.005140   0.003403  -0.001313   0.000049
     19       0.010464   0.076808   0.018491  -0.038917   0.000298   0.000001
     20       0.000000   0.000000   0.000000  -0.000000   0.000000   0.000000
     21      -0.001983   0.000376  -0.000487  -0.000022   0.005391  -0.000975
     22      -0.000958   0.000413  -0.000239   0.000458  -0.004523   0.000962
     23      -0.000000   0.000000   0.000000   0.000000   0.000000  -0.000000
     24       0.001151  -0.000254   0.000283  -0.000125  -0.000481  -0.052200
     25      -0.000356   0.000057  -0.000067  -0.000049  -0.000211   0.034342
     26      -0.000000   0.000000   0.000000   0.000000  -0.000000  -0.000000
     27       0.000305   0.000014   0.000063   0.000136  -0.003375   0.001144
     28       0.000269  -0.000100   0.000102  -0.000132   0.002252  -0.000111
     29       0.000000   0.000000   0.000000   0.000000  -0.000000   0.000000
     30      -0.263930  -0.266268   0.733913  -0.291679  -0.000408   0.000115
     31       0.141429   0.150688  -0.401496   0.157283   0.000617   0.000307
     32       0.000000   0.000000  -0.000000   0.000000  -0.000000   0.000000
     33       0.815068  -0.195174   0.184849  -0.074930   0.002778  -0.000817
     34       0.469700  -0.113887   0.111622  -0.045584   0.000166   0.009715
     35      -0.000000   0.000000  -0.000000   0.000000  -0.000000   0.000000
     36       0.000467   0.000403   0.001263   0.001873  -0.036135  -0.001444
     37       0.002755   0.002188   0.000662   0.000256  -0.997267  -0.012152
     38       0.000000   0.000000   0.000000   0.000000  -0.000000  -0.000000
     39       0.037699   0.247677   0.391591   0.727285   0.000883   0.000077
     40       0.021997   0.147099   0.228314   0.418891   0.002367   0.000273
     41      -0.000000  -0.000000  -0.000000  -0.000000   0.000000  -0.000000
     42       0.001670   0.011405  -0.003664  -0.007356   0.000427  -0.000288
     43      -0.126418  -0.874413  -0.199845   0.411979  -0.001884  -0.000242
     44      -0.000000  -0.000000  -0.000000   0.000000  -0.000000   0.000000
     45       0.001298  -0.000395  -0.000354   0.000195  -0.012403   0.819044
     46       0.005475  -0.001188   0.000964  -0.000091   0.005019  -0.570098
     47      -0.000000   0.000000  -0.000000   0.000000  -0.000000   0.000000


-----------
IR SPECTRUM
-----------

 Mode   freq       eps      Int      T**2         TX        TY        TZ
       cm**-1   L/(mol*cm) km/mol    a.u.
----------------------------------------------------------------------------
  7:    150.36   0.000234    1.18  0.000486  (-0.000000 -0.000000 -0.022052)
  8:    271.30   0.000565    2.85  0.000649  ( 0.000000  0.000000 -0.025484)
  9:    288.48   0.002814   14.22  0.003044  (-0.036153 -0.041682  0.000000)
 10:    368.05   0.014807   74.83  0.012555  ( 0.000000  0.000000  0.112048)
 11:    398.97   0.000520    2.63  0.000407  ( 0.017111 -0.010688 -0.000000)
 12:    467.65   0.001836    9.28  0.001225  ( 0.003282  0.034847 -0.000000)
 13:    492.49   0.003958   20.00  0.002508  (-0.000000 -0.000000 -0.050079)
 14:    567.40   0.003425   17.31  0.001884  ( 0.041602  0.012377 -0.000000)
 15:    586.62   0.004396   22.21  0.002338  ( 0.000000  0.000000 -0.048357)
 16:    611.54   0.000251    1.27  0.000128  ( 0.008070 -0.007950  0.000000)
 17:    717.93   0.003644   18.41  0.001584  (-0.001119 -0.039782  0.000000)
 18:    756.40   0.015745   79.57  0.006496  (-0.000000 -0.000000  0.080597)
 19:    775.77   0.006316   31.92  0.002541  ( 0.000000  0.000000 -0.050405)
 20:    835.95   0.018667   94.34  0.006968  ( 0.000000 -0.000000 -0.083477)
 21:    845.48   0.000197    1.00  0.000073  ( 0.007034 -0.004828 -0.000000)
 22:    887.95   0.004315   21.81  0.001516  (-0.000000  0.000000  0.038941)
 23:    926.01   0.002981   15.06  0.001004  (-0.024336  0.020303  0.000000)
 24:    965.25   0.003916   19.79  0.001266  ( 0.000000 -0.000000 -0.035583)
 25:   1063.45   0.000171    0.86  0.000050  ( 0.000000  0.000000  0.007075)
 26:   1121.20   0.000227    1.15  0.000063  (-0.000000 -0.000000  0.007948)
 27:   1124.76   0.002592   13.10  0.000719  (-0.026810  0.000716 -0.000000)
 28:   1182.91   0.000081    0.41  0.000021  ( 0.001253  0.004439  0.000000)
 29:   1222.07   0.012613   63.74  0.003221  ( 0.047462  0.031115 -0.000000)
 30:   1253.26   0.004412   22.30  0.001099  (-0.025376 -0.021325 -0.000000)
 31:   1276.87   0.002780   14.05  0.000680  ( 0.014833  0.021436  0.000000)
 32:   1337.80   0.042201  213.27  0.009844  (-0.089656 -0.042496 -0.000000)
 33:   1364.57   0.011946   60.37  0.002732  ( 0.049361 -0.017190  0.000000)
 34:   1458.03   0.013502   68.23  0.002890  (-0.053096  0.008407  0.000000)
 35:   1479.52   0.054443  275.13  0.011483  ( 0.086711  0.062964  0.000000)
 36:   1539.55   0.077733  392.83  0.015756  (-0.014894 -0.124638 -0.000000)
 37:   1621.57   0.009089   45.93  0.001749  ( 0.041790 -0.001649 -0.000000)
 38:   1655.07   0.029808  150.64  0.005620  ( 0.074811 -0.004852 -0.000000)
 39:   1770.11   0.016912   85.46  0.002981  ( 0.049029  0.024034 -0.000000)
 40:   1822.32   0.013949   70.49  0.002389  ( 0.003489 -0.048750 -0.000000)
 41:   1997.09   0.109344  552.58  0.017086  ( 0.098301 -0.086156  0.000000)
 42:   3336.86   0.002716   13.73  0.000254  (-0.011420 -0.011117 -0.000000)
 43:   3353.84   0.001751    8.85  0.000163  ( 0.004201  0.012052  0.000000)
 44:   3374.91   0.001760    8.89  0.000163  (-0.012415  0.002928  0.000000)
 45:   3382.54   0.000452    2.29  0.000042  ( 0.000433 -0.006445  0.000000)
 46:   3938.71   0.071967  363.69  0.005702  ( 0.004120 -0.075399 -0.000000)
 47:   4230.89   0.020072  101.44  0.001480  ( 0.033777 -0.018429  0.000000)

* The epsilon (eps) is given for a Dirac delta lineshape.
** The dipole moment derivative (T) already includes vibrational overlap.

The first frequency considered to be a vibration is 7
The total number of vibrations considered is 41


--------------------------
THERMOCHEMISTRY AT 298.15K
--------------------------

Temperature         ... 298.15 K
Pressure            ... 1.00 atm
Total Mass          ... 138.12 AMU

Throughout the following assumptions are being made:
  (1) The electronic state is orbitally nondegenerate
  (2) There are no thermally accessible electronically excited states
  (3) Hindered rotations indicated by low frequency modes are not
      treated as such but are treated as vibrations and this may
      cause some error
  (4) All equations used are the standard statistical mechanics
      equations for an ideal gas
  (5) All vibrations are strictly harmonic

freq.     150.36  E(vib)   ...       0.40 
freq.     271.30  E(vib)   ...       0.29 
freq.     288.48  E(vib)   ...       0.27 
freq.     368.05  E(vib)   ...       0.21 
freq.     398.97  E(vib)   ...       0.19 
freq.     467.65  E(vib)   ...       0.16 
freq.     492.49  E(vib)   ...       0.14 
freq.     567.40  E(vib)   ...       0.11 
freq.     586.62  E(vib)   ...       0.11 
freq.     611.54  E(vib)   ...       0.10 
freq.     717.93  E(vib)   ...       0.07 
freq.     756.40  E(vib)   ...       0.06 
freq.     775.77  E(vib)   ...       0.05 
freq.     835.95  E(vib)   ...       0.04 
freq.     845.48  E(vib)   ...       0.04 
freq.     887.95  E(vib)   ...       0.04 
freq.     926.01  E(vib)   ...       0.03 
freq.     965.25  E(vib)   ...       0.03 
freq.    1063.45  E(vib)   ...       0.02 
freq.    1121.20  E(vib)   ...       0.01 
freq.    1124.76  E(vib)   ...       0.01 
freq.    1182.91  E(vib)   ...       0.01 
freq.    1222.07  E(vib)   ...       0.01 
freq.    1253.26  E(vib)   ...       0.01 
freq.    1276.87  E(vib)   ...       0.01 
freq.    1337.80  E(vib)   ...       0.01 
freq.    1364.57  E(vib)   ...       0.01 
freq.    1458.03  E(vib)   ...       0.00 
freq.    1479.52  E(vib)   ...       0.00 
freq.    1539.55  E(vib)   ...       0.00 
freq.    1621.57  E(vib)   ...       0.00 
freq.    1655.07  E(vib)   ...       0.00 
freq.    1770.11  E(vib)   ...       0.00 
freq.    1822.32  E(vib)   ...       0.00 
freq.    1997.09  E(vib)   ...       0.00 
freq.    3336.86  E(vib)   ...       0.00 
freq.    3353.84  E(vib)   ...       0.00 
freq.    3374.91  E(vib)   ...       0.00 
freq.    3382.54  E(vib)   ...       0.00 
freq.    3938.71  E(vib)   ...       0.00 
freq.    4230.89  E(vib)   ...       0.00 

------------
INNER ENERGY
------------

The inner energy is: U= E(el) + E(ZPE) + E(vib) + E(rot) + E(trans)
    E(el)   - is the total energy from the electronic structure calculation
              = E(kin-el) + E(nuc-el) + E(el-el) + E(nuc-nuc)
    E(ZPE)  - the the zero temperature vibrational energy from the frequency calculation
    E(vib)  - the the finite temperature correction to E(ZPE) due to population
              of excited vibrational states
    E(rot)  - is the rotational thermal energy
    E(trans)- is the translational thermal energy

Summary of contributions to the inner energy U:
Electronic energy                ...   -492.81089540 Eh
Zero point energy                ...      0.12944890 Eh      81.23 kcal/mol
Thermal vibrational correction   ...      0.00390769 Eh       2.45 kcal/mol
Thermal rotational correction    ...      0.00141627 Eh       0.89 kcal/mol
Thermal translational correction ...      0.00141627 Eh       0.89 kcal/mol
-----------------------------------------------------------------------
Total thermal energy                   -492.67470626 Eh


Summary of corrections to the electronic energy:
(perhaps to be used in another calculation)
Total thermal correction                  0.00674024 Eh       4.23 kcal/mol
Non-thermal (ZPE) correction              0.12944890 Eh      81.23 kcal/mol
-----------------------------------------------------------------------
Total correction                          0.13618914 Eh      85.46 kcal/mol


--------
ENTHALPY
--------

The enthalpy is H = U + kB*T
                kB is Boltzmann's constant
Total free energy                 ...   -492.67470626 Eh 
Thermal Enthalpy correction       ...      0.00094421 Eh       0.59 kcal/mol
-----------------------------------------------------------------------
Total Enthalpy                    ...   -492.67376205 Eh


Note: Rotational entropy computed according to Herzberg 
Infrared and Raman Spectra, Chapter V,1, Van Nostrand Reinhold, 1945 
Point Group:  Cs, Symmetry Number:   1  
Rotational constants in cm-1:     0.079175     0.040866     0.026954 

Vibrational entropy computed according to the QRRHO of S. Grimme
Chem.Eur.J. 2012 18 9955


-------
ENTROPY
-------

The entropy contributions are T*S = T*(S(el)+S(vib)+S(rot)+S(trans))
     S(el)   - electronic entropy
     S(vib)  - vibrational entropy
     S(rot)  - rotational entropy
     S(trans)- translational entropy
The entropies will be listed as multiplied by the temperature to get
units of energy

Electronic entropy                ...      0.00000000 Eh      0.00 kcal/mol
Vibrational entropy               ...      0.00595662 Eh      3.74 kcal/mol
Rotational entropy                ...      0.01392353 Eh      8.74 kcal/mol
Translational entropy             ...      0.01932865 Eh     12.13 kcal/mol
-----------------------------------------------------------------------
Final entropy term                ...      0.03920880 Eh     24.60 kcal/mol

In case the symmetry of your molecule has not been determined correctly
or in case you have a reason to use a different symmetry number we print 
out the resulting rotational entropy values for sn=1,12 :
 --------------------------------------------------------
|  sn= 1 | S(rot)=       0.01392353 Eh      8.74 kcal/mol|
|  sn= 2 | S(rot)=       0.01326907 Eh      8.33 kcal/mol|
|  sn= 3 | S(rot)=       0.01288624 Eh      8.09 kcal/mol|
|  sn= 4 | S(rot)=       0.01261462 Eh      7.92 kcal/mol|
|  sn= 5 | S(rot)=       0.01240393 Eh      7.78 kcal/mol|
|  sn= 6 | S(rot)=       0.01223178 Eh      7.68 kcal/mol|
|  sn= 7 | S(rot)=       0.01208624 Eh      7.58 kcal/mol|
|  sn= 8 | S(rot)=       0.01196016 Eh      7.51 kcal/mol|
|  sn= 9 | S(rot)=       0.01184895 Eh      7.44 kcal/mol|
|  sn=10 | S(rot)=       0.01174947 Eh      7.37 kcal/mol|
|  sn=11 | S(rot)=       0.01165948 Eh      7.32 kcal/mol|
|  sn=12 | S(rot)=       0.01157733 Eh      7.26 kcal/mol|
 --------------------------------------------------------


-------------------
GIBBS FREE ENERGY
-------------------

The Gibbs free energy is G = H - T*S

Total enthalpy                    ...   -492.67376205 Eh 
Total entropy correction          ...     -0.03920880 Eh    -24.60 kcal/mol
-----------------------------------------------------------------------
Final Gibbs free energy         ...   -492.71297085 Eh

For completeness - the Gibbs free energy minus the electronic energy
G-E(el)                           ...      0.09792455 Eh     61.45 kcal/mol


Timings for individual modules:

Sum of individual times         ...      314.019 sec (=   5.234 min)
GTO integral calculation        ...        0.619 sec (=   0.010 min)   0.2 %
SCF iterations                  ...       78.722 sec (=   1.312 min)  25.1 %
SCF Gradient evaluation         ...       40.473 sec (=   0.675 min)  12.9 %
Geometry relaxation             ...        0.379 sec (=   0.006 min)   0.1 %
Analytical frequency calculation...      193.827 sec (=   3.230 min)  61.7 %
                             ****ORCA TERMINATED NORMALLY****
TOTAL RUN TIME: 0 days 0 hours 5 minutes 14 seconds 474 msec
