
                                 *****************
                                 * O   R   C   A *
                                 *****************

                                            #,                                       
                                            ###                                      
                                            ####                                     
                                            #####                                    
                                            ######                                   
                                           ########,                                 
                                     ,,################,,,,,                         
                               ,,#################################,,                 
                          ,,##########################################,,             
                       ,#########################################, ''#####,          
                    ,#############################################,,   '####,        
                  ,##################################################,,,,####,       
                ,###########''''           ''''###############################       
              ,#####''   ,,,,##########,,,,          '''####'''          '####       
            ,##' ,,,,###########################,,,                        '##       
           ' ,,###''''                  '''############,,,                           
         ,,##''                                '''############,,,,        ,,,,,,###''
      ,#''                                            '''#######################'''  
     '                                                          ''''####''''         
             ,#######,   #######,   ,#######,      ##                                
            ,#'     '#,  ##    ##  ,#'     '#,    #''#        ######   ,####,        
            ##       ##  ##   ,#'  ##            #'  '#       #        #'  '#        
            ##       ##  #######   ##           ,######,      #####,   #    #        
            '#,     ,#'  ##    ##  '#,     ,#' ,#      #,         ##   #,  ,#        
             '#######'   ##     ##  '#######'  #'      '#     #####' # '####'        



                  #######################################################
                  #                        -***-                        #
                  #          Department of theory and spectroscopy      #
                  #    Directorship and core code : Frank Neese         #
                  #        Max Planck Institute fuer Kohlenforschung    #
                  #                Kaiser Wilhelm Platz 1               #
                  #                 D-45470 Muelheim/Ruhr               #
                  #                      Germany                        #
                  #                                                     #
                  #                  All rights reserved                #
                  #                        -***-                        #
                  #######################################################


                         Program Version 5.0.3 -  RELEASE  -


 With contributions from (in alphabetic order):
   Daniel Aravena         : Magnetic Suceptibility
   Michael Atanasov       : Ab Initio Ligand Field Theory (pilot matlab implementation)
   Alexander A. Auer      : GIAO ZORA, VPT2 properties, NMR spectrum
   Ute Becker             : Parallelization
   Giovanni Bistoni       : ED, misc. LED, open-shell LED, HFLD
   Martin Brehm           : Molecular dynamics
   Dmytro Bykov           : SCF Hessian
   Vijay G. Chilkuri      : MRCI spin determinant printing, contributions to CSF-ICE
   Dipayan Datta          : RHF DLPNO-CCSD density
   Achintya Kumar Dutta   : EOM-CC, STEOM-CC
   Dmitry Ganyushin       : Spin-Orbit,Spin-Spin,Magnetic field MRCI
   Miquel Garcia          : C-PCM and meta-GGA Hessian, CC/C-PCM, Gaussian charge scheme
   Yang Guo               : DLPNO-NEVPT2, F12-NEVPT2, CIM, IAO-localization
   Andreas Hansen         : Spin unrestricted coupled pair/coupled cluster methods
   Benjamin Helmich-Paris : MC-RPA, TRAH-SCF, COSX integrals
   Lee Huntington         : MR-EOM, pCC
   Robert Izsak           : Overlap fitted RIJCOSX, COSX-SCS-MP3, EOM
   Marcus Kettner         : VPT2
   Christian Kollmar      : KDIIS, OOCD, Brueckner-CCSD(T), CCSD density, CASPT2, CASPT2-K
   Simone Kossmann        : Meta GGA functionals, TD-DFT gradient, OOMP2, MP2 Hessian
   Martin Krupicka        : Initial AUTO-CI
   Lucas Lang             : DCDCAS
   Marvin Lechner         : AUTO-CI (C++ implementation), FIC-MRCC
   Dagmar Lenk            : GEPOL surface, SMD
   Dimitrios Liakos       : Extrapolation schemes; Compound Job, initial MDCI parallelization
   Dimitrios Manganas     : Further ROCIS development; embedding schemes
   Dimitrios Pantazis     : SARC Basis sets
   Anastasios Papadopoulos: AUTO-CI, single reference methods and gradients
   Taras Petrenko         : DFT Hessian,TD-DFT gradient, ASA, ECA, R-Raman, ABS, FL, XAS/XES, NRVS
   Peter Pinski           : DLPNO-MP2, DLPNO-MP2 Gradient
   Christoph Reimann      : Effective Core Potentials
   Marius Retegan         : Local ZFS, SOC
   Christoph Riplinger    : Optimizer, TS searches, QM/MM, DLPNO-CCSD(T), (RO)-DLPNO pert. Triples
   Tobias Risthaus        : Range-separated hybrids, TD-DFT gradient, RPA, STAB
   Michael Roemelt        : Original ROCIS implementation
   Masaaki Saitow         : Open-shell DLPNO-CCSD energy and density
   Barbara Sandhoefer     : DKH picture change effects
   Avijit Sen             : IP-ROCIS
   Kantharuban Sivalingam : CASSCF convergence, NEVPT2, FIC-MRCI
   Bernardo de Souza      : ESD, SOC TD-DFT
   Georgi Stoychev        : AutoAux, RI-MP2 NMR, DLPNO-MP2 response
   Willem Van den Heuvel  : Paramagnetic NMR
   Boris Wezisla          : Elementary symmetry handling
   Frank Wennmohs         : Technical directorship


 We gratefully acknowledge several colleagues who have allowed us to
 interface, adapt or use parts of their codes:
   Stefan Grimme, W. Hujo, H. Kruse, P. Pracht,  : VdW corrections, initial TS optimization,
                  C. Bannwarth, S. Ehlert          DFT functionals, gCP, sTDA/sTD-DF
   Ed Valeev, F. Pavosevic, A. Kumar             : LibInt (2-el integral package), F12 methods
   Garnet Chan, S. Sharma, J. Yang, R. Olivares  : DMRG
   Ulf Ekstrom                                   : XCFun DFT Library
   Mihaly Kallay                                 : mrcc  (arbitrary order and MRCC methods)
   Jiri Pittner, Ondrej Demel                    : Mk-CCSD
   Frank Weinhold                                : gennbo (NPA and NBO analysis)
   Christopher J. Cramer and Donald G. Truhlar   : smd solvation model
   Lars Goerigk                                  : TD-DFT with DH, B97 family of functionals
   V. Asgeirsson, H. Jonsson                     : NEB implementation
   FAccTs GmbH                                   : IRC, NEB, NEB-TS, DLPNO-Multilevel, CI-OPT
                                                   MM, QMMM, 2- and 3-layer-ONIOM, Crystal-QMMM,
                                                   LR-CPCM, SF, NACMEs, symmetry and pop. for TD-DFT,
                                                   nearIR, NL-DFT gradient (VV10), updates on ESD,
                                                   ML-optimized integration grids
   S Lehtola, MJT Oliveira, MAL Marques          : LibXC Library
   Liviu Ungur et al                             : ANISO software


 Your calculation uses the libint2 library for the computation of 2-el integrals
 For citations please refer to: http://libint.valeyev.net

 Your ORCA version has been built with support for libXC version: 5.1.0
 For citations please refer to: https://tddft.org/programs/libxc/

 This ORCA versions uses:
   CBLAS   interface :  Fast vector & matrix operations
   LAPACKE interface :  Fast linear algebra routines
   SCALAPACK package :  Parallel linear algebra routines
   Shared memory     :  Shared parallel matrices
   BLAS/LAPACK       :  OpenBLAS 0.3.19 NO_AFFINITY VORTEX SINGLE_THREADED
        Core in use  :  VORTEX
   Copyright (c) 2011-2014, The OpenBLAS Project


================================================================================

----- Orbital basis set information -----
Your calculation utilizes the basis: def2-SVP
   F. Weigend and R. Ahlrichs, Phys. Chem. Chem. Phys. 7, 3297 (2005).

----- AuxJ basis set information -----
Your calculation utilizes the auxiliary basis: def2/J
   F. Weigend, Phys. Chem. Chem. Phys. 8, 1057 (2006).

================================================================================
                                        WARNINGS
                       Please study these warnings very carefully!
================================================================================


INFO   : the flag for use of the SHARK integral package has been found!

================================================================================
                                       INPUT FILE
================================================================================
NAME = test.inp
|  1> ! B3LYP def2-SVP Freq CPCM(acetone) TightSCF
|  2> 
|  3> * xyz 0 1
|  4>    C        4.00644        1.11162        0.00000
|  5>    C        3.99115        2.51232       -0.00000
|  6>    C        2.77303        3.21182       -0.00000
|  7>    C        1.57790        2.46764        0.00000
|  8>    O        0.32861        3.03408        0.00000
|  9>    C        1.59805        1.07274        0.00000
| 10>    C        2.81303        0.39403        0.00000
| 11>    C        2.68146        4.70137       -0.00000
| 12>    O        3.83186        5.40013       -0.00000
| 13>    O        1.59332        5.26314        0.00000
| 14>    H        4.95457        0.57747       -0.00000
| 15>    H        4.95458        3.00722        0.00000
| 16>    H        0.42624        4.01340       -0.00000
| 17>    H        0.66229        0.51904       -0.00000
| 18>    H        2.82684       -0.69321       -0.00000
| 19>    H        4.66681        4.90709        0.00000
| 20> **                         ****END OF INPUT****
================================================================================

                       ****************************
                       * Single Point Calculation *
                       ****************************

---------------------------------
CARTESIAN COORDINATES (ANGSTROEM)
---------------------------------
  C      4.006440    1.111620    0.000000
  C      3.991150    2.512320   -0.000000
  C      2.773030    3.211820   -0.000000
  C      1.577900    2.467640    0.000000
  O      0.328610    3.034080    0.000000
  C      1.598050    1.072740    0.000000
  C      2.813030    0.394030    0.000000
  C      2.681460    4.701370   -0.000000
  O      3.831860    5.400130   -0.000000
  O      1.593320    5.263140    0.000000
  H      4.954570    0.577470   -0.000000
  H      4.954580    3.007220    0.000000
  H      0.426240    4.013400   -0.000000
  H      0.662290    0.519040   -0.000000
  H      2.826840   -0.693210   -0.000000
  H      4.666810    4.907090    0.000000

----------------------------
CARTESIAN COORDINATES (A.U.)
----------------------------
  NO LB      ZA    FRAG     MASS         X           Y           Z
   0 C     6.0000    0    12.011    7.571074    2.100657    0.000000
   1 C     6.0000    0    12.011    7.542180    4.747597   -0.000000
   2 C     6.0000    0    12.011    5.240267    6.069460   -0.000000
   3 C     6.0000    0    12.011    2.981799    4.663164    0.000000
   4 O     8.0000    0    15.999    0.620983    5.733580    0.000000
   5 C     6.0000    0    12.011    3.019877    2.027185    0.000000
   6 C     6.0000    0    12.011    5.315856    0.744609    0.000000
   7 C     6.0000    0    12.011    5.067225    8.884302   -0.000000
   8 O     8.0000    0    15.999    7.241166   10.204767   -0.000000
   9 O     8.0000    0    15.999    3.010938    9.945893    0.000000
  10 H     1.0000    0     1.008    9.362780    1.091260   -0.000000
  11 H     1.0000    0     1.008    9.362799    5.682822    0.000000
  12 H     1.0000    0     1.008    0.805477    7.584227   -0.000000
  13 H     1.0000    0     1.008    1.251547    0.980843   -0.000000
  14 H     1.0000    0     1.008    5.341953   -1.309977   -0.000000
  15 H     1.0000    0     1.008    8.818993    9.273056    0.000000

--------------------------------
INTERNAL COORDINATES (ANGSTROEM)
--------------------------------
 C      0   0   0     0.000000000000     0.00000000     0.00000000
 C      1   0   0     1.400783450109     0.00000000     0.00000000
 C      2   1   0     1.404676683226   120.49181974     0.00000000
 C      3   2   1     1.407884792623   118.22402091     0.00000000
 O      4   3   2     1.371706884761   123.70043364   180.00000000
 C      4   3   2     1.395045530619   121.08196608     0.00000000
 C      6   4   3     1.391698122619   120.01612996     0.00000000
 C      3   2   1     1.492361975996   123.38423323   180.00000000
 O      8   3   2     1.345988743489   117.75692389     0.00000000
 O      8   3   2     1.224595521999   120.82360954   180.00000000
 H      1   2   3     1.088240193799   120.02111172   180.00000085
 H      2   1   3     1.083108200920   116.56349318   180.00000000
 H      5   4   3     0.984174415081   108.69689398     0.00000000
 H      6   4   3     1.087304220354   119.78568571   180.00000000
 H      7   6   4     1.087327702995   119.91624789   180.00000000
 H      9   8   3     0.969654548847   118.16329462     0.00000000

---------------------------
INTERNAL COORDINATES (A.U.)
---------------------------
 C      0   0   0     0.000000000000     0.00000000     0.00000000
 C      1   0   0     2.647097093636     0.00000000     0.00000000
 C      2   1   0     2.654454238003   120.49181974     0.00000000
 C      3   2   1     2.660516686171   118.22402091     0.00000000
 O      4   3   2     2.592150348212   123.70043364   180.00000000
 C      4   3   2     2.636253997221   121.08196608     0.00000000
 C      6   4   3     2.629928312841   120.01612996     0.00000000
 C      3   2   1     2.820155427311   123.38423323   180.00000000
 O      8   3   2     2.543550104536   117.75692389     0.00000000
 O      8   3   2     2.314150161404   120.82360954   180.00000000
 H      1   2   3     2.056475934206   120.02111172   180.00000085
 H      2   1   3     2.046777873143   116.56349318   180.00000000
 H      5   4   3     1.859820112515   108.69689398     0.00000000
 H      6   4   3     2.054707200726   119.78568571   180.00000000
 H      7   6   4     2.054751576486   119.91624789   180.00000000
 H      9   8   3     1.832381541832   118.16329462     0.00000000

---------------------
BASIS SET INFORMATION
---------------------
There are 3 groups of distinct atoms

 Group   1 Type C   : 7s4p1d contracted to 3s2p1d pattern {511/31/1}
 Group   2 Type O   : 7s4p1d contracted to 3s2p1d pattern {511/31/1}
 Group   3 Type H   : 4s1p contracted to 2s1p pattern {31/1}

Atom   0C    basis set group =>   1
Atom   1C    basis set group =>   1
Atom   2C    basis set group =>   1
Atom   3C    basis set group =>   1
Atom   4O    basis set group =>   2
Atom   5C    basis set group =>   1
Atom   6C    basis set group =>   1
Atom   7C    basis set group =>   1
Atom   8O    basis set group =>   2
Atom   9O    basis set group =>   2
Atom  10H    basis set group =>   3
Atom  11H    basis set group =>   3
Atom  12H    basis set group =>   3
Atom  13H    basis set group =>   3
Atom  14H    basis set group =>   3
Atom  15H    basis set group =>   3
---------------------------------
AUXILIARY/J BASIS SET INFORMATION
---------------------------------
There are 3 groups of distinct atoms

 Group   1 Type C   : 12s5p4d2f1g contracted to 6s4p3d1f1g pattern {711111/2111/211/2/1}
 Group   2 Type O   : 12s5p4d2f1g contracted to 6s4p3d1f1g pattern {711111/2111/211/2/1}
 Group   3 Type H   : 5s2p1d contracted to 3s1p1d pattern {311/2/1}

Atom   0C    basis set group =>   1
Atom   1C    basis set group =>   1
Atom   2C    basis set group =>   1
Atom   3C    basis set group =>   1
Atom   4O    basis set group =>   2
Atom   5C    basis set group =>   1
Atom   6C    basis set group =>   1
Atom   7C    basis set group =>   1
Atom   8O    basis set group =>   2
Atom   9O    basis set group =>   2
Atom  10H    basis set group =>   3
Atom  11H    basis set group =>   3
Atom  12H    basis set group =>   3
Atom  13H    basis set group =>   3
Atom  14H    basis set group =>   3
Atom  15H    basis set group =>   3

Checking for AutoStart:
The File: test.gbw exists
Trying to determine its content:
     ... Fine, the file contains calculation information
     ... Fine, the calculation information was read
     ... Fine, the file contains a basis set
     ... Fine, the basis set was read
     ... Fine, the file contains a geometry
     ... Fine, the geometry was read
     ... The file does not contain orbitals - skipping AutoStart
------------------------------------------------------------------------------
                           ORCA GTO INTEGRAL CALCULATION
                           -- RI-GTO INTEGRALS CHOSEN --
------------------------------------------------------------------------------
------------------------------------------------------------------------------
                   ___                                                        
                  /   \      - P O W E R E D   B Y -                         
                 /     \                                                     
                 |  |  |   _    _      __       _____    __    __             
                 |  |  |  | |  | |    /  \     |  _  \  |  |  /  |          
                  \  \/   | |  | |   /    \    | | | |  |  | /  /          
                 / \  \   | |__| |  /  /\  \   | |_| |  |  |/  /          
                |  |  |   |  __  | /  /__\  \  |    /   |      \           
                |  |  |   | |  | | |   __   |  |    \   |  |\   \          
                \     /   | |  | | |  |  |  |  | |\  \  |  | \   \       
                 \___/    |_|  |_| |__|  |__|  |_| \__\ |__|  \__/        
                                                                              
                      - O R C A' S   B I G   F R I E N D -                    
                                      &                                       
                       - I N T E G R A L  F E E D E R -                       
                                                                              
 v1 FN, 2020, v2 2021                                                         
------------------------------------------------------------------------------


Reading SHARK input file test.SHARKINP.tmp ... ok
----------------------
SHARK INTEGRAL PACKAGE
----------------------

Number of atoms                             ...     16
Number of basis functions                   ...    170
Number of shells                            ...     78
Maximum angular momentum                    ...      2
Integral batch strategy                     ... SHARK/LIBINT Hybrid
RI-J (if used) integral strategy            ... SPLIT-RIJ (Revised 2003 algorithm where possible)
Printlevel                                  ...      1
Contraction scheme used                     ... SEGMENTED contraction
Coulomb Range Separation                    ... NOT USED
Exchange Range Separation                   ... NOT USED
Finite Nucleus Model                        ... NOT USED
Auxiliary Coulomb fitting basis             ... AVAILABLE
   # of basis functions in Aux-J            ...    556
   # of shells in Aux-J                     ...    180
   Maximum angular momentum in Aux-J        ...      4
Auxiliary J/K fitting basis                 ... NOT available
Auxiliary Correlation fitting basis         ... NOT available
Auxiliary 'external' fitting basis          ... NOT available
Integral threshold                          ...     2.500000e-11
Primitive cut-off                           ...     2.500000e-12
Primitive pair pre-selection threshold      ...     2.500000e-12

Calculating pre-screening integrals         ... done (  0.0 sec) Dimension = 78
Organizing shell pair data                  ... done (  0.0 sec)
Shell pair information
Total number of shell pairs                 ...      3081
Shell pairs after pre-screening             ...      2841
Total number of primitive shell pairs       ...     11473
Primitive shell pairs kept                  ...      7593
          la=0 lb=0:    827 shell pairs
          la=1 lb=0:   1017 shell pairs
          la=1 lb=1:    331 shell pairs
          la=2 lb=0:    378 shell pairs
          la=2 lb=1:    238 shell pairs
          la=2 lb=2:     50 shell pairs

Calculating one electron integrals          ... done (  0.0 sec)
Calculating RI/J V-Matrix + Cholesky decomp.... done (  0.0 sec)
Calculating Nuclear repulsion               ... done (  0.0 sec) ENN=    501.641890194748 Eh

SHARK setup successfully completed in   0.1 seconds

Maximum memory used throughout the entire GTOINT-calculation: 24.3 MB
-------------------------------------------------------------------------------
                                 ORCA SCF
-------------------------------------------------------------------------------

------------
SCF SETTINGS
------------
Hamiltonian:
 Density Functional     Method          .... DFT(GTOs)
 Exchange Functional    Exchange        .... B88
   X-Alpha parameter    XAlpha          ....  0.666667
   Becke's b parameter  XBeta           ....  0.004200
 Correlation Functional Correlation     .... LYP
 LDA part of GGA corr.  LDAOpt          .... VWN-5
 Gradients option       PostSCFGGA      .... off
 Hybrid DFT is turned on
   Fraction HF Exchange ScalHFX         ....  0.200000
   Scaling of DF-GGA-X  ScalDFX         ....  0.720000
   Scaling of DF-GGA-C  ScalDFC         ....  0.810000
   Scaling of DF-LDA-C  ScalLDAC        ....  1.000000
   Perturbative correction              ....  0.000000
   Density functional embedding theory  .... OFF
   NL short-range parameter             ....  4.800000
 RI-approximation to the Coulomb term is turned on
   Number of AuxJ basis functions       .... 556
   RIJ-COSX (HFX calculated with COS-X)).... on


General Settings:
 Integral files         IntName         .... test
 Hartree-Fock type      HFTyp           .... RHF
 Total Charge           Charge          ....    0
 Multiplicity           Mult            ....    1
 Number of Electrons    NEL             ....   72
 Basis Dimension        Dim             ....  170
 Nuclear Repulsion      ENuc            ....    501.6418901947 Eh

Convergence Acceleration:
 DIIS                   CNVDIIS         .... on
   Start iteration      DIISMaxIt       ....    12
   Startup error        DIISStart       ....  0.200000
   # of expansion vecs  DIISMaxEq       ....     5
   Bias factor          DIISBfac        ....   1.050
   Max. coefficient     DIISMaxC        ....  10.000
 Trust-Rad. Augm. Hess. CNVTRAH         .... auto
   Auto Start mean grad. ratio tolernc. ....  1.125000
   Auto Start start iteration           ....    20
   Auto Start num. interpolation iter.  ....    10
   Max. Number of Micro iterations      ....    16
   Max. Number of Macro iterations      .... Maxiter - #DIIS iter
   Number of Davidson start vectors     ....     2
   Converg. threshold I  (grad. norm)   ....   1.000e-05
   Converg. threshold II (energy diff.) ....   1.000e-08
   Grad. Scal. Fac. for Micro threshold ....   0.100
   Minimum threshold for Micro iter.    ....   0.010
   NR start threshold (gradient norm)   ....   0.001
   Initial trust radius                 ....   0.400
   Minimum AH scaling param. (alpha)    ....   1.000
   Maximum AH scaling param. (alpha)    .... 1000.000
   Orbital update algorithm             .... Taylor
   White noise on init. David. guess    .... on
   Maximum white noise                  ....   0.010
   Quad. conv. algorithm                .... NR
 SOSCF                  CNVSOSCF        .... on
   Start iteration      SOSCFMaxIt      ....   150
   Startup grad/error   SOSCFStart      ....  0.003300
 Level Shifting         CNVShift        .... on
   Level shift para.    LevelShift      ....    0.2500
   Turn off err/grad.   ShiftErr        ....    0.0010
 Zerner damping         CNVZerner       .... off
 Static damping         CNVDamp         .... on
   Fraction old density DampFac         ....    0.7000
   Max. Damping (<1)    DampMax         ....    0.9800
   Min. Damping (>=0)   DampMin         ....    0.0000
   Turn off err/grad.   DampErr         ....    0.1000
 Fernandez-Rico         CNVRico         .... off

SCF Procedure:
 Maximum # iterations   MaxIter         ....   125
 SCF integral mode      SCFMode         .... Direct
   Integral package                     .... SHARK and LIBINT hybrid scheme
 Reset frequency        DirectResetFreq ....    20
 Integral Threshold     Thresh          ....  2.500e-11 Eh
 Primitive CutOff       TCut            ....  2.500e-12 Eh

Convergence Tolerance:
 Convergence Check Mode ConvCheckMode   .... Total+1el-Energy
 Convergence forced     ConvForced      .... 0
 Energy Change          TolE            ....  1.000e-08 Eh
 1-El. energy change                    ....  1.000e-05 Eh
 Orbital Gradient       TolG            ....  1.000e-05
 Orbital Rotation angle TolX            ....  1.000e-05
 DIIS Error             TolErr          ....  5.000e-07


Diagonalization of the overlap matrix:
Smallest eigenvalue                        ... 2.545e-04
Time for diagonalization                   ...    0.004 sec
Threshold for overlap eigenvalues          ... 1.000e-08
Number of eigenvalues below threshold      ... 0
Time for construction of square roots      ...    0.001 sec
Total time needed                          ...    0.005 sec

Time for model grid setup =    0.092 sec

------------------------------
INITIAL GUESS: MODEL POTENTIAL
------------------------------
Loading Hartree-Fock densities                     ... done
Calculating cut-offs                               ... done
Initializing the effective Hamiltonian             ... done
Setting up the integral package (SHARK)            ... done
Starting the Coulomb interaction                   ... done (   0.1 sec)
Reading the grid                                   ... done
Mapping shells                                     ... done
Starting the XC term evaluation                    ... done (   0.1 sec)
  promolecular density results
     # of electrons  =     71.993879625
     EX              =    -62.379987465
     EC              =     -2.495645658
     EX+EC           =    -64.875633122
Transforming the Hamiltonian                       ... done (   0.0 sec)
Diagonalizing the Hamiltonian                      ... done (   0.0 sec)
Back transforming the eigenvectors                 ... done (   0.0 sec)
Now organizing SCF variables                       ... done
                      ------------------
                      INITIAL GUESS DONE (   0.3 sec)
                      ------------------
-------------------
DFT GRID GENERATION
-------------------

General Integration Accuracy     IntAcc      ... 4.388
Radial Grid Type                 RadialGrid  ... OptM3 with GC (2021)
Angular Grid (max. ang.)         AngularGrid ... 4 (Lebedev-302)
Angular grid pruning method      GridPruning ... 4 (adaptive)
Weight generation scheme         WeightScheme... Becke
Basis function cutoff            BFCut       ... 1.0000e-11
Integration weight cutoff        WCut        ... 1.0000e-14
Angular grids for H and He will be reduced by one unit
Partially contracted basis set               ... off
Rotationally invariant grid construction     ... off

Total number of grid points                  ...    79525
Total number of batches                      ...     1250
Average number of points per batch           ...       63
Average number of grid points per atom       ...     4970
Time for grid setup =    0.515 sec

--------------------
COSX GRID GENERATION
--------------------

GRIDX 1
-------
General Integration Accuracy     IntAcc      ... 3.816
Radial Grid Type                 RadialGrid  ... OptM3 with GC (2021)
Angular Grid (max. ang.)         AngularGrid ... 1 (Lebedev-50)
Angular grid pruning method      GridPruning ... 4 (adaptive)
Weight generation scheme         WeightScheme... Becke
Basis function cutoff            BFCut       ... 1.0000e-11
Integration weight cutoff        WCut        ... 1.0000e-14
Angular grids for H and He will be reduced by one unit
Partially contracted basis set               ... on
Rotationally invariant grid construction     ... off

Total number of grid points                  ...    10149
Total number of batches                      ...      165
Average number of points per batch           ...       61
Average number of grid points per atom       ...      634
UseSFitting                                  ... on

GRIDX 2
-------
General Integration Accuracy     IntAcc      ... 4.020
Radial Grid Type                 RadialGrid  ... OptM3 with GC (2021)
Angular Grid (max. ang.)         AngularGrid ... 2 (Lebedev-110)
Angular grid pruning method      GridPruning ... 4 (adaptive)
Weight generation scheme         WeightScheme... Becke
Basis function cutoff            BFCut       ... 1.0000e-11
Integration weight cutoff        WCut        ... 1.0000e-14
Angular grids for H and He will be reduced by one unit
Partially contracted basis set               ... on
Rotationally invariant grid construction     ... off

Total number of grid points                  ...    22502
Total number of batches                      ...      358
Average number of points per batch           ...       62
Average number of grid points per atom       ...     1406
UseSFitting                                  ... on

GRIDX 3
-------
General Integration Accuracy     IntAcc      ... 4.338
Radial Grid Type                 RadialGrid  ... OptM3 with GC (2021)
Angular Grid (max. ang.)         AngularGrid ... 3 (Lebedev-194)
Angular grid pruning method      GridPruning ... 4 (adaptive)
Weight generation scheme         WeightScheme... Becke
Basis function cutoff            BFCut       ... 1.0000e-11
Integration weight cutoff        WCut        ... 1.0000e-14
Angular grids for H and He will be reduced by one unit
Partially contracted basis set               ... on
Rotationally invariant grid construction     ... off

Total number of grid points                  ...    49653
Total number of batches                      ...      783
Average number of points per batch           ...       63
Average number of grid points per atom       ...     3103
UseSFitting                                  ... on

Time for X-Grid setup             =    0.487 sec


--------------------
CPCM SOLVATION MODEL
--------------------
CPCM parameters:
  Epsilon                                         ...      20.7000
  Refrac                                          ...       1.3590
  Rsolv                                           ...       1.3000
  Surface type                                    ... GAUSSIAN VDW
  Epsilon function type                           ...         CPCM
Radii:
 Radius for C  used is    3.8550 Bohr (=   2.0400 Ang.)
 Radius for O  used is    3.4469 Bohr (=   1.8240 Ang.)
 Radius for H  used is    2.4944 Bohr (=   1.3200 Ang.)
Calculating surface                               ...        done! (  0.0s)
GEPOL surface points                              ...          883
GEPOL Volume                                      ...    1067.2186
GEPOL Surface-area                                ...     589.1279
Calculating surface distance matrix               ...        done! (  0.0s)
Performing Cholesky decomposition & store         ...        done! (  0.0s)
Overall time for CPCM initialization              ...                 0.0s
--------------
SCF ITERATIONS
--------------
ITER       Energy         Delta-E        Max-DP      RMS-DP      [F,P]     Damp
               ***  Starting incremental Fock matrix formation  ***
  0   -495.1703165114   0.000000000000 0.09031718  0.00284339  0.2515408 0.7000
  1   -495.2942901741  -0.123973662650 0.05223086  0.00184829  0.1022165 0.7000
                               ***Turning on DIIS***
  2   -495.3404147715  -0.046124597446 0.06658500  0.00293291  0.0360004 0.0000
  3   -495.4178929725  -0.077478200958 0.03448020  0.00118926  0.0521000 0.0000
  4   -495.4320781742  -0.014185201753 0.01142765  0.00035053  0.0118238 0.0000
  5   -495.4330850921  -0.001006917888 0.00332968  0.00010821  0.0045444 0.0000
                      *** Initiating the SOSCF procedure ***
                           *** Shutting down DIIS ***
                      *** Re-Reading the Fockian *** 
                      *** Removing any level shift *** 
ITER      Energy       Delta-E        Grad      Rot      Max-DP    RMS-DP
  6   -495.43313397  -0.0000488796  0.000395  0.000395  0.001147  0.000040
               *** Restarting incremental Fock matrix formation ***
  7   -495.43311272   0.0000212508  0.000187  0.000484  0.000810  0.000032
  8   -495.43311195   0.0000007670  0.000334  0.000360  0.000557  0.000013
  9   -495.43311387  -0.0000019125  0.000036  0.000081  0.000164  0.000006
 10   -495.43311384   0.0000000291  0.000046  0.000058  0.000111  0.000003
 11   -495.43311392  -0.0000000843  0.000011  0.000015  0.000033  0.000001
 12   -495.43311392  -0.0000000002  0.000010  0.000013  0.000020  0.000001
                  ***Gradient check signals convergence***
              ***Rediagonalizing the Fockian in SOSCF/NRSCF***

               *****************************************************
               *                     SUCCESS                       *
               *           SCF CONVERGED AFTER  13 CYCLES          *
               *****************************************************

Old exchange energy                            =    -12.605400254 Eh
New exchange energy                            =    -12.605489725 Eh
Exchange energy change after final integration =     -0.000089470 Eh
Total energy after final integration           =   -495.433203396 Eh
Final COS-X integration done in                =     4.826 sec

----------------
TOTAL SCF ENERGY
----------------

Total Energy       :         -495.43320340 Eh          -13481.42285 eV

Components:
Nuclear Repulsion  :          501.64189019 Eh           13650.36980 eV
Electronic Energy  :         -997.07509359 Eh          -27131.79265 eV
One Electron Energy:        -1669.36147798 Eh          -45425.63521 eV
Two Electron Energy:          672.28638439 Eh           18293.84256 eV
Max COSX asymmetry :            0.00000285 Eh               0.00008 eV
CPCM Dielectric    :           -0.01714183 Eh              -0.46645 eV

Virial components:
Potential Energy   :         -986.49248616 Eh          -26843.82526 eV
Kinetic Energy     :          491.05928276 Eh           13362.40242 eV
Virial Ratio       :            2.00890711


DFT components:
N(Alpha)           :       36.000003768803 electrons
N(Beta)            :       36.000003768803 electrons
N(Total)           :       72.000007537607 electrons
E(X)               :      -50.152587996784 Eh       
E(C)               :       -2.939476334130 Eh       
E(XC)              :      -53.092064330914 Eh       
DFET-embed. en.    :        0.000000000000 Eh       
CPCM Solvation Model Properties:
Surface-charge          :           -0.01307849
Charge-correction       :            0.00010211 Eh               0.00278 eV
Free-energy (cav+disp)  :  This term is not implemented in the current solvation scheme

---------------
SCF CONVERGENCE
---------------

  Last Energy change         ...   -3.3824e-09  Tolerance :   1.0000e-08
  Last MAX-Density change    ...    3.1086e-15  Tolerance :   1.0000e-07
  Last RMS-Density change    ...    5.0058e-17  Tolerance :   5.0000e-09
  Last Orbital Gradient      ...    1.8069e-06  Tolerance :   1.0000e-05
  Last Orbital Rotation      ...    3.5026e-06  Tolerance :   1.0000e-05

             **** THE GBW FILE WAS UPDATED (test.gbw) ****
             **** DENSITY test.scfp WAS UPDATED ****
             **** ENERGY FILE WAS UPDATED (test.en.tmp) ****
             **** THE GBW FILE WAS UPDATED (test.gbw) ****
             **** DENSITY test.scfp WAS UPDATED ****
----------------
ORBITAL ENERGIES
----------------

  NO   OCC          E(Eh)            E(eV) 
   0   2.0000     -19.186517      -522.0917 
   1   2.0000     -19.151779      -521.1464 
   2   2.0000     -19.139083      -520.8009 
   3   2.0000     -10.338253      -281.3182 
   4   2.0000     -10.261714      -279.2354 
   5   2.0000     -10.209022      -277.8016 
   6   2.0000     -10.208605      -277.7903 
   7   2.0000     -10.200473      -277.5690 
   8   2.0000     -10.190816      -277.3062 
   9   2.0000     -10.189994      -277.2838 
  10   2.0000      -1.098333       -29.8871 
  11   2.0000      -1.041415       -28.3384 
  12   2.0000      -1.014896       -27.6167 
  13   2.0000      -0.857044       -23.3213 
  14   2.0000      -0.765959       -20.8428 
  15   2.0000      -0.741091       -20.1661 
  16   2.0000      -0.655689       -17.8422 
  17   2.0000      -0.633787       -17.2462 
  18   2.0000      -0.607568       -16.5328 
  19   2.0000      -0.569473       -15.4961 
  20   2.0000      -0.517626       -14.0853 
  21   2.0000      -0.491121       -13.3641 
  22   2.0000      -0.479207       -13.0399 
  23   2.0000      -0.465288       -12.6611 
  24   2.0000      -0.454048       -12.3553 
  25   2.0000      -0.443333       -12.0637 
  26   2.0000      -0.409278       -11.1370 
  27   2.0000      -0.395725       -10.7682 
  28   2.0000      -0.385225       -10.4825 
  29   2.0000      -0.378340       -10.2952 
  30   2.0000      -0.357592        -9.7306 
  31   2.0000      -0.344908        -9.3854 
  32   2.0000      -0.334081        -9.0908 
  33   2.0000      -0.294394        -8.0109 
  34   2.0000      -0.272747        -7.4218 
  35   2.0000      -0.235623        -6.4116 
  36   0.0000      -0.056569        -1.5393 
  37   0.0000      -0.006844        -0.1862 
  38   0.0000       0.043719         1.1897 
  39   0.0000       0.052160         1.4193 
  40   0.0000       0.082832         2.2540 
  41   0.0000       0.118818         3.2332 
  42   0.0000       0.127665         3.4739 
  43   0.0000       0.147839         4.0229 
  44   0.0000       0.164647         4.4803 
  45   0.0000       0.187627         5.1056 
  46   0.0000       0.189113         5.1460 
  47   0.0000       0.251237         6.8365 
  48   0.0000       0.256862         6.9896 
  49   0.0000       0.268648         7.3103 
  50   0.0000       0.294098         8.0028 
  51   0.0000       0.324376         8.8267 
  52   0.0000       0.333024         9.0620 
  53   0.0000       0.354646         9.6504 
  54   0.0000       0.357782         9.7358 
  55   0.0000       0.391622        10.6566 
  56   0.0000       0.407348        11.0845 
  57   0.0000       0.429258        11.6807 
  58   0.0000       0.442080        12.0296 
  59   0.0000       0.472275        12.8512 
  60   0.0000       0.478627        13.0241 
  61   0.0000       0.481992        13.1157 
  62   0.0000       0.499696        13.5974 
  63   0.0000       0.510851        13.9009 
  64   0.0000       0.516099        14.0438 
  65   0.0000       0.531164        14.4537 
  66   0.0000       0.551745        15.0137 
  67   0.0000       0.571364        15.5476 
  68   0.0000       0.591692        16.1008 
  69   0.0000       0.591765        16.1028 
  70   0.0000       0.622130        16.9290 
  71   0.0000       0.632681        17.2161 
  72   0.0000       0.651799        17.7364 
  73   0.0000       0.658484        17.9183 
  74   0.0000       0.662348        18.0234 
  75   0.0000       0.703780        19.1508 
  76   0.0000       0.713724        19.4214 
  77   0.0000       0.721719        19.6390 
  78   0.0000       0.728794        19.8315 
  79   0.0000       0.764485        20.8027 
  80   0.0000       0.768474        20.9112 
  81   0.0000       0.802484        21.8367 
  82   0.0000       0.817015        22.2321 
  83   0.0000       0.853166        23.2158 
  84   0.0000       0.917988        24.9797 
  85   0.0000       0.932450        25.3733 
  86   0.0000       0.978272        26.6201 
  87   0.0000       0.998947        27.1827 
  88   0.0000       1.000845        27.2344 
  89   0.0000       1.043011        28.3818 
  90   0.0000       1.062154        28.9027 
  91   0.0000       1.087634        29.5960 
  92   0.0000       1.123458        30.5709 
  93   0.0000       1.191176        32.4136 
  94   0.0000       1.193392        32.4739 
  95   0.0000       1.212627        32.9973 
  96   0.0000       1.227127        33.3918 
  97   0.0000       1.249768        34.0079 
  98   0.0000       1.264670        34.4134 
  99   0.0000       1.277798        34.7706 
 100   0.0000       1.306121        35.5414 
 101   0.0000       1.317228        35.8436 
 102   0.0000       1.345743        36.6195 
 103   0.0000       1.389866        37.8202 
 104   0.0000       1.433571        39.0094 
 105   0.0000       1.437604        39.1192 
 106   0.0000       1.478246        40.2251 
 107   0.0000       1.541143        41.9366 
 108   0.0000       1.541311        41.9412 
 109   0.0000       1.626727        44.2655 
 110   0.0000       1.652818        44.9755 
 111   0.0000       1.663376        45.2628 
 112   0.0000       1.694704        46.1152 
 113   0.0000       1.697733        46.1977 
 114   0.0000       1.714038        46.6413 
 115   0.0000       1.724638        46.9298 
 116   0.0000       1.741248        47.3818 
 117   0.0000       1.744844        47.4796 
 118   0.0000       1.778222        48.3879 
 119   0.0000       1.796165        48.8761 
 120   0.0000       1.808732        49.2181 
 121   0.0000       1.812889        49.3312 
 122   0.0000       1.863853        50.7180 
 123   0.0000       1.898717        51.6667 
 124   0.0000       1.948183        53.0128 
 125   0.0000       1.957651        53.2704 
 126   0.0000       1.971530        53.6480 
 127   0.0000       1.977951        53.8228 
 128   0.0000       2.027077        55.1596 
 129   0.0000       2.068635        56.2904 
 130   0.0000       2.087498        56.8037 
 131   0.0000       2.146147        58.3996 
 132   0.0000       2.154396        58.6241 
 133   0.0000       2.178166        59.2709 
 134   0.0000       2.198668        59.8288 
 135   0.0000       2.231286        60.7164 
 136   0.0000       2.274645        61.8962 
 137   0.0000       2.286397        62.2160 
 138   0.0000       2.290818        62.3363 
 139   0.0000       2.309936        62.8566 
 140   0.0000       2.329151        63.3794 
 141   0.0000       2.366119        64.3854 
 142   0.0000       2.492051        67.8122 
 143   0.0000       2.493635        67.8553 
 144   0.0000       2.582900        70.2843 
 145   0.0000       2.608273        70.9747 
 146   0.0000       2.611676        71.0673 
 147   0.0000       2.627722        71.5039 
 148   0.0000       2.677466        72.8575 
 149   0.0000       2.730331        74.2961 
 150   0.0000       2.758690        75.0678 
 151   0.0000       2.785838        75.8065 
 152   0.0000       2.822919        76.8155 
 153   0.0000       2.865950        77.9865 
 154   0.0000       2.908355        79.1404 
 155   0.0000       2.955639        80.4270 
 156   0.0000       2.980018        81.0904 
 157   0.0000       2.997960        81.5786 
 158   0.0000       3.019131        82.1547 
 159   0.0000       3.044653        82.8492 
 160   0.0000       3.130054        85.1731 
 161   0.0000       3.149099        85.6913 
 162   0.0000       3.268795        88.9484 
 163   0.0000       3.284190        89.3673 
 164   0.0000       3.392228        92.3072 
 165   0.0000       3.498897        95.2098 
 166   0.0000       3.571780        97.1931 
 167   0.0000       3.671064        99.8947 
 168   0.0000       3.782983       102.9402 
 169   0.0000       3.847090       104.6847 

                    ********************************
                    * MULLIKEN POPULATION ANALYSIS *
                    ********************************

-----------------------
MULLIKEN ATOMIC CHARGES
-----------------------
   0 C :   -0.006132
   1 C :   -0.032836
   2 C :   -0.053450
   3 C :    0.128362
   4 O :   -0.231323
   5 C :   -0.042363
   6 C :    0.030434
   7 C :    0.235142
   8 O :   -0.178663
   9 O :   -0.287322
  10 H :    0.003605
  11 H :    0.004455
  12 H :    0.196034
  13 H :   -0.005986
  14 H :    0.013234
  15 H :    0.226809
Sum of atomic charges:   -0.0000000

--------------------------------
MULLIKEN REDUCED ORBITAL CHARGES
--------------------------------
  0 C s       :     3.169438  s :     3.169438
      pz      :     1.017572  p :     2.802420
      px      :     0.860527
      py      :     0.924322
      dz2     :     0.002482  d :     0.034274
      dxz     :     0.003228
      dyz     :     0.004839
      dx2y2   :     0.011429
      dxy     :     0.012296
  1 C s       :     3.240805  s :     3.240805
      pz      :     0.958381  p :     2.757081
      px      :     0.858506
      py      :     0.940194
      dz2     :     0.002636  d :     0.034950
      dxz     :     0.003691
      dyz     :     0.006142
      dx2y2   :     0.010350
      dxy     :     0.012130
  2 C s       :     3.083117  s :     3.083117
      pz      :     1.124446  p :     2.933772
      px      :     0.902895
      py      :     0.906431
      dz2     :     0.003247  d :     0.036560
      dxz     :     0.006343
      dyz     :     0.003169
      dx2y2   :     0.012999
      dxy     :     0.010802
  3 C s       :     3.024392  s :     3.024392
      pz      :     0.930957  p :     2.772856
      px      :     0.874271
      py      :     0.967628
      dz2     :     0.005252  d :     0.074391
      dxz     :     0.014917
      dyz     :     0.008802
      dx2y2   :     0.023012
      dxy     :     0.022409
  4 O s       :     3.668323  s :     3.668323
      pz      :     1.792335  p :     4.550046
      px      :     1.448933
      py      :     1.308778
      dz2     :     0.001936  d :     0.012953
      dxz     :     0.002422
      dyz     :     0.000357
      dx2y2   :     0.005593
      dxy     :     0.002646
  5 C s       :     3.273382  s :     3.273382
      pz      :     1.032380  p :     2.736749
      px      :     0.785702
      py      :     0.918667
      dz2     :     0.002553  d :     0.032232
      dxz     :     0.003460
      dyz     :     0.004474
      dx2y2   :     0.012113
      dxy     :     0.009631
  6 C s       :     3.180710  s :     3.180710
      pz      :     0.938020  p :     2.752506
      px      :     0.958727
      py      :     0.855758
      dz2     :     0.002468  d :     0.036350
      dxz     :     0.007319
      dyz     :     0.002493
      dx2y2   :     0.013100
      dxy     :     0.010970
  7 C s       :     3.048628  s :     3.048628
      pz      :     0.799720  p :     2.585178
      px      :     0.824233
      py      :     0.961225
      dz2     :     0.007522  d :     0.131051
      dxz     :     0.027306
      dyz     :     0.010849
      dx2y2   :     0.044136
      dxy     :     0.041238
  8 O s       :     3.654880  s :     3.654880
      pz      :     1.767175  p :     4.511635
      px      :     1.141061
      py      :     1.603399
      dz2     :     0.001978  d :     0.012148
      dxz     :     0.000997
      dyz     :     0.001680
      dx2y2   :     0.001185
      dxy     :     0.006307
  9 O s       :     3.732902  s :     3.732902
      pz      :     1.472148  p :     4.537831
      px      :     1.367995
      py      :     1.697689
      dz2     :     0.001895  d :     0.016589
      dxz     :     0.003861
      dyz     :     0.001340
      dx2y2   :     0.004184
      dxy     :     0.005308
 10 H s       :     0.973091  s :     0.973091
      pz      :     0.004747  p :     0.023304
      px      :     0.012411
      py      :     0.006146
 11 H s       :     0.971519  s :     0.971519
      pz      :     0.004720  p :     0.024025
      px      :     0.013342
      py      :     0.005964
 12 H s       :     0.729462  s :     0.729462
      pz      :     0.015770  p :     0.074504
      px      :     0.013937
      py      :     0.044797
 13 H s       :     0.982714  s :     0.982714
      pz      :     0.004593  p :     0.023272
      px      :     0.012333
      py      :     0.006347
 14 H s       :     0.963732  s :     0.963732
      pz      :     0.004132  p :     0.023034
      px      :     0.003292
      py      :     0.015610
 15 H s       :     0.704906  s :     0.704906
      pz      :     0.015213  p :     0.068285
      px      :     0.033475
      py      :     0.019597


                     *******************************
                     * LOEWDIN POPULATION ANALYSIS *
                     *******************************

----------------------
LOEWDIN ATOMIC CHARGES
----------------------
   0 C :   -0.047653
   1 C :   -0.000521
   2 C :   -0.132470
   3 C :    0.083038
   4 O :   -0.077249
   5 C :   -0.051830
   6 C :    0.005465
   7 C :    0.118374
   8 O :   -0.028438
   9 O :   -0.204692
  10 H :    0.035958
  11 H :    0.037822
  12 H :    0.061400
  13 H :    0.039138
  14 H :    0.040648
  15 H :    0.121010

-------------------------------
LOEWDIN REDUCED ORBITAL CHARGES
-------------------------------
  0 C s       :     2.858387  s :     2.858387
      pz      :     1.000982  p :     3.099737
      px      :     1.048411
      py      :     1.050345
      dz2     :     0.006164  d :     0.089528
      dxz     :     0.006026
      dyz     :     0.010215
      dx2y2   :     0.032846
      dxy     :     0.034277
  1 C s       :     2.860585  s :     2.860585
      pz      :     0.945769  p :     3.048783
      px      :     1.035680
      py      :     1.067334
      dz2     :     0.006145  d :     0.091153
      dxz     :     0.007570
      dyz     :     0.012912
      dx2y2   :     0.030231
      dxy     :     0.034295
  2 C s       :     2.859925  s :     2.859925
      pz      :     1.081184  p :     3.170917
      px      :     1.066237
      py      :     1.023496
      dz2     :     0.008549  d :     0.101627
      dxz     :     0.013127
      dyz     :     0.006289
      dx2y2   :     0.039383
      dxy     :     0.034279
  3 C s       :     2.842424  s :     2.842424
      pz      :     0.924908  p :     2.904925
      px      :     0.930072
      py      :     1.049945
      dz2     :     0.010982  d :     0.169613
      dxz     :     0.029898
      dyz     :     0.017463
      dx2y2   :     0.058018
      dxy     :     0.053252
  4 O s       :     3.424488  s :     3.424488
      pz      :     1.761016  p :     4.628334
      px      :     1.492945
      py      :     1.374372
      dz2     :     0.003686  d :     0.024427
      dxz     :     0.003110
      dyz     :     0.000482
      dx2y2   :     0.011649
      dxy     :     0.005500
  5 C s       :     2.862162  s :     2.862162
      pz      :     1.010014  p :     3.103268
      px      :     1.052657
      py      :     1.040596
      dz2     :     0.006473  d :     0.086401
      dxz     :     0.006348
      dyz     :     0.009319
      dx2y2   :     0.034834
      dxy     :     0.029427
  6 C s       :     2.862470  s :     2.862470
      pz      :     0.921136  p :     3.039003
      px      :     1.070759
      py      :     1.047108
      dz2     :     0.006059  d :     0.093063
      dxz     :     0.015925
      dyz     :     0.004126
      dx2y2   :     0.035849
      dxy     :     0.031104
  7 C s       :     2.849057  s :     2.849057
      pz      :     0.799322  p :     2.743112
      px      :     0.929531
      py      :     1.014258
      dz2     :     0.016691  d :     0.289458
      dxz     :     0.052538
      dyz     :     0.020288
      dx2y2   :     0.105726
      dxy     :     0.094215
  8 O s       :     3.401477  s :     3.401477
      pz      :     1.723674  p :     4.602388
      px      :     1.237679
      py      :     1.641035
      dz2     :     0.004003  d :     0.024573
      dxz     :     0.001955
      dyz     :     0.001367
      dx2y2   :     0.003124
      dxy     :     0.014124
  9 O s       :     3.535737  s :     3.535737
      pz      :     1.461352  p :     4.640227
      px      :     1.474247
      py      :     1.704628
      dz2     :     0.004206  d :     0.028729
      dxz     :     0.004801
      dyz     :     0.001504
      dx2y2   :     0.007362
      dxy     :     0.010855
 10 H s       :     0.895330  s :     0.895330
      pz      :     0.015029  p :     0.068712
      px      :     0.035315
      py      :     0.018368
 11 H s       :     0.891061  s :     0.891061
      pz      :     0.014306  p :     0.071118
      px      :     0.038221
      py      :     0.018591
 12 H s       :     0.727203  s :     0.727203
      pz      :     0.044356  p :     0.211396
      px      :     0.040819
      py      :     0.126222
 13 H s       :     0.890929  s :     0.890929
      pz      :     0.015291  p :     0.069933
      px      :     0.035308
      py      :     0.019334
 14 H s       :     0.891470  s :     0.891470
      pz      :     0.012926  p :     0.067882
      px      :     0.011005
      py      :     0.043951
 15 H s       :     0.701543  s :     0.701543
      pz      :     0.043472  p :     0.177447
      px      :     0.078133
      py      :     0.055843


                      *****************************
                      * MAYER POPULATION ANALYSIS *
                      *****************************

  NA   - Mulliken gross atomic population
  ZA   - Total nuclear charge
  QA   - Mulliken gross atomic charge
  VA   - Mayer's total valence
  BVA  - Mayer's bonded valence
  FA   - Mayer's free valence

  ATOM       NA         ZA         QA         VA         BVA        FA
  0 C      6.0061     6.0000    -0.0061     3.8561     3.8561    -0.0000
  1 C      6.0328     6.0000    -0.0328     3.8519     3.8519    -0.0000
  2 C      6.0534     6.0000    -0.0534     3.5152     3.5152    -0.0000
  3 C      5.8716     6.0000     0.1284     4.0819     4.0819    -0.0000
  4 O      8.2313     8.0000    -0.2313     2.2661     2.2661    -0.0000
  5 C      6.0424     6.0000    -0.0424     3.8162     3.8162    -0.0000
  6 C      5.9696     6.0000     0.0304     3.8003     3.8003    -0.0000
  7 C      5.7649     6.0000     0.2351     4.2759     4.2759    -0.0000
  8 O      8.1787     8.0000    -0.1787     2.3049     2.3049     0.0000
  9 O      8.2873     8.0000    -0.2873     2.2243     2.2243    -0.0000
 10 H      0.9964     1.0000     0.0036     0.9799     0.9799     0.0000
 11 H      0.9955     1.0000     0.0045     0.9923     0.9923    -0.0000
 12 H      0.8040     1.0000     0.1960     1.0664     1.0664     0.0000
 13 H      1.0060     1.0000    -0.0060     0.9974     0.9974    -0.0000
 14 H      0.9868     1.0000     0.0132     0.9788     0.9788    -0.0000
 15 H      0.7732     1.0000     0.2268     0.9981     0.9981    -0.0000

  Mayer bond orders larger than 0.100000
B(  0-C ,  1-C ) :   1.4353 B(  0-C ,  6-C ) :   1.3390 B(  0-C , 10-H ) :   0.9896 
B(  1-C ,  2-C ) :   1.2759 B(  1-C , 11-H ) :   0.9868 B(  2-C ,  3-C ) :   1.2762 
B(  2-C ,  7-C ) :   0.9519 B(  3-C ,  4-O ) :   1.2821 B(  3-C ,  5-C ) :   1.3396 
B(  4-O , 12-H ) :   0.8892 B(  5-C ,  6-C ) :   1.3832 B(  5-C , 13-H ) :   0.9977 
B(  6-C , 14-H ) :   0.9911 B(  7-C ,  8-O ) :   1.2879 B(  7-C ,  9-O ) :   1.9311 
B(  8-O , 15-H ) :   0.9274 B(  9-O , 12-H ) :   0.1347 

-------
TIMINGS
-------

Total SCF time: 0 days 0 hours 0 min 38 sec 

Total time                  ....      38.964 sec
Sum of individual times     ....      38.847 sec  ( 99.7%)

Fock matrix formation       ....      37.515 sec  ( 96.3%)
  Split-RI-J                ....       2.028 sec  (  5.4% of F)
  Chain of spheres X        ....      27.217 sec  ( 72.5% of F)
  XC integration            ....       5.251 sec  ( 14.0% of F)
    Basis function eval.    ....       1.849 sec  ( 35.2% of XC)
    Density eval.           ....       1.453 sec  ( 27.7% of XC)
    XC-Functional eval.     ....       0.295 sec  (  5.6% of XC)
    XC-Potential eval.      ....       1.351 sec  ( 25.7% of XC)
Diagonalization             ....       0.020 sec  (  0.1%)
Density matrix formation    ....       0.003 sec  (  0.0%)
Population analysis         ....       0.006 sec  (  0.0%)
Initial guess               ....       0.168 sec  (  0.4%)
Orbital Transformation      ....       0.000 sec  (  0.0%)
Orbital Orthonormalization  ....       0.000 sec  (  0.0%)
DIIS solution               ....       0.028 sec  (  0.1%)
SOSCF solution              ....       0.014 sec  (  0.0%)
Grid generation             ....       1.094 sec  (  2.8%)

Maximum memory used throughout the entire SCF-calculation: 73.5 MB

-------------------------   --------------------
FINAL SINGLE POINT ENERGY      -495.433203395627
-------------------------   --------------------


                            ***************************************
                            *     ORCA property calculations      *
                            ***************************************

                                    ---------------------
                                    Active property flags
                                    ---------------------
   (+) Dipole Moment


------------------------------------------------------------------------------
                       ORCA ELECTRIC PROPERTIES CALCULATION
------------------------------------------------------------------------------

Dipole Moment Calculation                       ... on
Quadrupole Moment Calculation                   ... off
Polarizability Calculation                      ... off
GBWName                                         ... test.gbw
Electron density                                ... test.scfp
The origin for moment calculation is the CENTER OF MASS  = ( 4.709207,  5.710719  0.000000)

-------------
DIPOLE MOMENT
-------------
                                X             Y             Z
Electronic contribution:     -1.38896       4.27467       0.00000
Nuclear contribution   :      3.29502      -5.37376       0.00000
                        -----------------------------------------
Total Dipole Moment    :      1.90606      -1.09908       0.00000
                        -----------------------------------------
Magnitude (a.u.)       :      2.20024
Magnitude (Debye)      :      5.59257



--------------------
Rotational spectrum 
--------------------
 
Rotational constants in cm-1:     0.077337     0.040588     0.026618 
Rotational constants in MHz :  2318.508627  1216.810090   798.000100 

 Dipole components along the rotational axes: 
x,y,z [a.u.] :     1.146261    -1.878068     0.000000 
x,y,z [Debye]:     2.913564    -4.773670     0.000000 

 

-------------------------------------------------------------------------------
                               ORCA SCF HESSIAN
-------------------------------------------------------------------------------

                   --------- SHARK INITIALIZATION DONE ---------

Hessian of the Kohn-Sham DFT energy:
Kohn-Sham wavefunction type                      ... RKS
Hartree-Fock exchange scaling                    ...    0.200
Number of operators                              ...    1
Number of atoms                                  ...   16
Basis set dimensions                             ...  170
Integral neglect threshold                       ... 2.5e-11
Integral primitive cutoff                        ... 2.5e-12

Setting up DFT Hessian calculations              ... 

HESS GRID
---------

General Integration Accuracy     IntAcc      ... 4.629
Radial Grid Type                 RadialGrid  ... OptM3 with GC (2021)
Angular Grid (max. ang.)         AngularGrid ... 5 (Lebedev-434)
Angular grid pruning method      GridPruning ... 4 (adaptive)
Weight generation scheme         WeightScheme... Becke
Basis function cutoff            BFCut       ... 1.0000e-11
Integration weight cutoff        WCut        ... 1.0000e-14
Angular grids for H and He will be reduced by one unit
Partially contracted basis set               ... off
Rotationally invariant grid construction     ... off

Total number of grid points                  ...   123705
Total number of batches                      ...     1942
Average number of points per batch           ...       63
Average number of grid points per atom       ...     7732

Building densities                               ... done   (      0.0 sec)
Calculating rho(r) on the grid                   ... done   (      0.4 sec)
Building xc-kernel on the grid                   ... done   (      0.1 sec)
                                                     done   (      1.4 sec)

Nuclear repulsion Hessian  (SHARK)               ... done   (      0.0 sec)

----------------------------------------------
Forming right-hand sides of CP-SCF equations     ...
----------------------------------------------
One electron integral derivatives  (SHARK)       ... done   (      0.1 sec)
C-PCM contribution to the Fock matrix derivative ... done   (      3.7 sec)
Transforming the overlap derivative matrices     ... done   (      1.4 sec)
Adding tr(S(x)F(y) C-PCM term to the hessian     ... done   (      0.0 sec)
Making the Q(x) pseudodensities                  ... done   (      0.0 sec)
Adding the E*S(x)*S(y) terms to the Hessian      ... done   (      0.0 sec)
Calculating energy weighted overlap derivatives  ... done   (      0.0 sec)
Two electron integral derivatives (SHARK-RI)     ... done   (     13.2 sec)
Exchange-correlation integral derivatives        ... done   (     47.9 sec)
tr(F(y)Q(x)) contribution to the Hessian         ... done   (      0.0 sec)
Response fock operator R(S(x)) (SHARK-RIJCOSX)   ... done   (      9.0 sec)
XC Response fock operator R(S(x))                ... done   (     12.5 sec)
tr(F(y)S(x)) contribution to the Hessian         ... done   (      0.0 sec)
Transforming and finalizing RHSs                 ... done   (      0.0 sec)

----------------------------------------------
Solving the CP-SCF equations (RIJCOSX)           ...
----------------------------------------------
     CP-SCF ITERATION   0:   4.6748e-01 (   6.8 sec   0/ 48 done)
     CP-SCF ITERATION   1:   3.9908e-02 (   7.0 sec   0/ 48 done)
     CP-SCF ITERATION   2:   1.7239e-02 (   6.9 sec   1/ 48 done)
     CP-SCF ITERATION   3:   6.9548e-03 (   6.8 sec  11/ 48 done)
     CP-SCF ITERATION   4:   2.6837e-03 (   5.6 sec  16/ 48 done)
     CP-SCF ITERATION   5:   6.3585e-04 (   4.8 sec  23/ 48 done)
     CP-SCF ITERATION   6:   1.6765e-04 (   4.6 sec  35/ 48 done)
     CP-SCF ITERATION   7:   5.5101e-05 (   2.8 sec  48/ 48 done)
                    *** THE CP-SCF HAS CONVERGED ***

                                                 ... done   (     45.5 sec)
Forming perturbed density Hessian contributions  ... done   (      0.0 sec)
Calculating [Q*(d^2 A/dXdY)*Q  ] C-PCM term      ... done   (      0.0 sec)
Calculating [d^2(V_N)/(dXdY)*Q ] C-PCM term      ... done   (      0.0 sec)
Calculating [d^2(V_el)/(dXdY)*Q] C-PCM term      ... done   (      0.5 sec)
Calculating C-PCM term that depends on dQ/dX     ... done   (      0.1 sec)
2nd integral derivative contribs (SHARK-RI)      ... done   (     48.3 sec)
Exchange-correlation Hessian                     ... done   (     30.8 sec)
Dipole derivatives                               ... (center of mass:  4.709207,  5.710719  0.000000)done   (      0.1 sec)

Total SCF Hessian time: 0 days 0 hours 3 min 36 sec 

Writing the Hessian file to the disk             ... done


Maximum memory used throughout the entire SCFHESS-calculation: 166.3 MB

-----------------------
VIBRATIONAL FREQUENCIES
-----------------------

Scaling factor for frequencies =  1.000000000  (already applied!)

   0:         0.00 cm**-1
   1:         0.00 cm**-1
   2:         0.00 cm**-1
   3:         0.00 cm**-1
   4:         0.00 cm**-1
   5:         0.00 cm**-1
   6:        94.41 cm**-1
   7:       112.14 cm**-1
   8:       238.26 cm**-1
   9:       254.40 cm**-1
  10:       304.59 cm**-1
  11:       369.68 cm**-1
  12:       436.75 cm**-1
  13:       444.47 cm**-1
  14:       523.62 cm**-1
  15:       538.43 cm**-1
  16:       566.57 cm**-1
  17:       661.71 cm**-1
  18:       697.62 cm**-1
  19:       707.17 cm**-1
  20:       746.11 cm**-1
  21:       767.06 cm**-1
  22:       797.59 cm**-1
  23:       845.24 cm**-1
  24:       864.95 cm**-1
  25:       952.16 cm**-1
  26:      1010.67 cm**-1
  27:      1039.93 cm**-1
  28:      1060.80 cm**-1
  29:      1102.05 cm**-1
  30:      1133.29 cm**-1
  31:      1159.01 cm**-1
  32:      1215.34 cm**-1
  33:      1235.87 cm**-1
  34:      1301.92 cm**-1
  35:      1357.42 cm**-1
  36:      1402.59 cm**-1
  37:      1479.76 cm**-1
  38:      1516.60 cm**-1
  39:      1645.74 cm**-1
  40:      1672.29 cm**-1
  41:      1749.02 cm**-1
  42:      3228.39 cm**-1
  43:      3241.25 cm**-1
  44:      3252.99 cm**-1
  45:      3276.54 cm**-1
  46:      3463.93 cm**-1
  47:      3773.51 cm**-1


------------
NORMAL MODES
------------

These modes are the Cartesian displacements weighted by the diagonal matrix
M(i,i)=1/sqrt(m[i]) where m[i] is the mass of the displaced atom
Thus, these vectors are normalized but *not* orthogonal

                  0          1          2          3          4          5    
      0       0.000000   0.000000   0.000000   0.000000   0.000000   0.000000
      1       0.000000   0.000000   0.000000   0.000000   0.000000   0.000000
      2       0.000000   0.000000   0.000000   0.000000   0.000000   0.000000
      3       0.000000   0.000000   0.000000   0.000000   0.000000   0.000000
      4       0.000000   0.000000   0.000000   0.000000   0.000000   0.000000
      5       0.000000   0.000000   0.000000   0.000000   0.000000   0.000000
      6       0.000000   0.000000   0.000000   0.000000   0.000000   0.000000
      7       0.000000   0.000000   0.000000   0.000000   0.000000   0.000000
      8       0.000000   0.000000   0.000000   0.000000   0.000000   0.000000
      9       0.000000   0.000000   0.000000   0.000000   0.000000   0.000000
     10       0.000000   0.000000   0.000000   0.000000   0.000000   0.000000
     11       0.000000   0.000000   0.000000   0.000000   0.000000   0.000000
     12       0.000000   0.000000   0.000000   0.000000   0.000000   0.000000
     13       0.000000   0.000000   0.000000   0.000000   0.000000   0.000000
     14       0.000000   0.000000   0.000000   0.000000   0.000000   0.000000
     15       0.000000   0.000000   0.000000   0.000000   0.000000   0.000000
     16       0.000000   0.000000   0.000000   0.000000   0.000000   0.000000
     17       0.000000   0.000000   0.000000   0.000000   0.000000   0.000000
     18       0.000000   0.000000   0.000000   0.000000   0.000000   0.000000
     19       0.000000   0.000000   0.000000   0.000000   0.000000   0.000000
     20       0.000000   0.000000   0.000000   0.000000   0.000000   0.000000
     21       0.000000   0.000000   0.000000   0.000000   0.000000   0.000000
     22       0.000000   0.000000   0.000000   0.000000   0.000000   0.000000
     23       0.000000   0.000000   0.000000   0.000000   0.000000   0.000000
     24       0.000000   0.000000   0.000000   0.000000   0.000000   0.000000
     25       0.000000   0.000000   0.000000   0.000000   0.000000   0.000000
     26       0.000000   0.000000   0.000000   0.000000   0.000000   0.000000
     27       0.000000   0.000000   0.000000   0.000000   0.000000   0.000000
     28       0.000000   0.000000   0.000000   0.000000   0.000000   0.000000
     29       0.000000   0.000000   0.000000   0.000000   0.000000   0.000000
     30       0.000000   0.000000   0.000000   0.000000   0.000000   0.000000
     31       0.000000   0.000000   0.000000   0.000000   0.000000   0.000000
     32       0.000000   0.000000   0.000000   0.000000   0.000000   0.000000
     33       0.000000   0.000000   0.000000   0.000000   0.000000   0.000000
     34       0.000000   0.000000   0.000000   0.000000   0.000000   0.000000
     35       0.000000   0.000000   0.000000   0.000000   0.000000   0.000000
     36       0.000000   0.000000   0.000000   0.000000   0.000000   0.000000
     37       0.000000   0.000000   0.000000   0.000000   0.000000   0.000000
     38       0.000000   0.000000   0.000000   0.000000   0.000000   0.000000
     39       0.000000   0.000000   0.000000   0.000000   0.000000   0.000000
     40       0.000000   0.000000   0.000000   0.000000   0.000000   0.000000
     41       0.000000   0.000000   0.000000   0.000000   0.000000   0.000000
     42       0.000000   0.000000   0.000000   0.000000   0.000000   0.000000
     43       0.000000   0.000000   0.000000   0.000000   0.000000   0.000000
     44       0.000000   0.000000   0.000000   0.000000   0.000000   0.000000
     45       0.000000   0.000000   0.000000   0.000000   0.000000   0.000000
     46       0.000000   0.000000   0.000000   0.000000   0.000000   0.000000
     47       0.000000   0.000000   0.000000   0.000000   0.000000   0.000000
                  6          7          8          9         10         11    
      0       0.000000  -0.000000   0.000000   0.059087  -0.000000   0.082169
      1       0.000000  -0.000000   0.000000   0.170758  -0.000000   0.099706
      2       0.137713  -0.009178  -0.156174   0.000000  -0.098875  -0.000000
      3      -0.000000   0.000000  -0.000000  -0.102761   0.000000   0.083681
      4       0.000000  -0.000000   0.000000   0.151973  -0.000000   0.076370
      5       0.168597  -0.203713   0.017682   0.000000   0.096189   0.000000
      6      -0.000000   0.000000  -0.000000  -0.161752   0.000000   0.013996
      7       0.000000  -0.000000   0.000000   0.015539  -0.000000  -0.067163
      8       0.032830  -0.226473   0.222643  -0.000000   0.058584   0.000000
      9      -0.000000   0.000000  -0.000000  -0.109285   0.000000  -0.014984
     10      -0.000000  -0.000000  -0.000000  -0.050039   0.000000   0.056479
     11      -0.048072  -0.120690   0.074114  -0.000000   0.058243  -0.000000
     12      -0.000000   0.000000  -0.000000  -0.155520   0.000000   0.145208
     13      -0.000000   0.000000  -0.000000  -0.109369   0.000000   0.328176
     14      -0.045694  -0.216722  -0.232035   0.000000  -0.059676   0.000000
     15       0.000000   0.000000   0.000000   0.042483  -0.000000  -0.014884
     16      -0.000000   0.000000  -0.000000  -0.048494   0.000000   0.069540
     17      -0.143284   0.155342   0.149385  -0.000000   0.123680  -0.000000
     18       0.000000  -0.000000   0.000000   0.124071  -0.000000   0.041558
     19      -0.000000  -0.000000   0.000000   0.074621  -0.000000   0.150250
     20      -0.057330   0.231435   0.002238  -0.000000  -0.074374   0.000000
     21       0.000000  -0.000000  -0.000000  -0.013077   0.000000  -0.109855
     22       0.000000   0.000000  -0.000000  -0.000070  -0.000000  -0.188205
     23       0.009630  -0.008395   0.122413  -0.000000  -0.029287   0.000000
     24       0.000000  -0.000000   0.000000   0.180879  -0.000000  -0.101781
     25      -0.000000   0.000000  -0.000000  -0.287162   0.000000  -0.298404
     26      -0.258917   0.103508  -0.174839   0.000000   0.071428  -0.000000
     27       0.000000  -0.000000   0.000000   0.091969  -0.000000  -0.133485
     28       0.000000   0.000000   0.000000   0.177031  -0.000000  -0.190302
     29       0.253900   0.256381   0.064657  -0.000000  -0.055615   0.000000
     30       0.000000   0.000000   0.000000   0.113649  -0.000000   0.055617
     31       0.000000  -0.000000   0.000000   0.269640  -0.000000   0.054048
     32       0.261998   0.014615  -0.388020   0.000000  -0.209293   0.000000
     33      -0.000000   0.000000  -0.000000  -0.157306   0.000000   0.058526
     34       0.000000  -0.000000   0.000000   0.251108  -0.000000   0.125346
     35       0.333266  -0.304194  -0.061572   0.000000   0.225108   0.000000
     36      -0.000000   0.000000  -0.000000  -0.246627   0.000000   0.448988
     37      -0.000000   0.000000  -0.000000  -0.112805   0.000000   0.327904
     38       0.114378  -0.128445  -0.158919   0.000000  -0.049190  -0.000000
     39       0.000000   0.000000   0.000000   0.114293  -0.000000   0.029888
     40      -0.000000   0.000000  -0.000000  -0.171979   0.000000  -0.006026
     41      -0.259336   0.321098   0.175005  -0.000000   0.195635  -0.000000
     42       0.000000  -0.000000   0.000000   0.228585  -0.000000   0.059592
     43      -0.000000   0.000000   0.000000   0.076295  -0.000000   0.150444
     44      -0.118510   0.484040  -0.048684   0.000000  -0.186819   0.000000
     45      -0.000000  -0.000000   0.000000   0.006379  -0.000000  -0.196493
     46      -0.000000  -0.000000  -0.000000  -0.573326   0.000000  -0.450881
     47      -0.719464  -0.494711   0.762716  -0.000002  -0.877857  -0.000000
                 12         13         14         15         16         17    
      0       0.054739   0.000000   0.077268  -0.000000  -0.274100   0.089787
      1       0.086621   0.000000   0.013285   0.000000   0.298828   0.031953
      2      -0.000000   0.014081   0.000000  -0.210248   0.000000   0.000000
      3       0.056836   0.000000  -0.120807  -0.000000  -0.034891   0.344152
      4       0.053306   0.000000   0.000421   0.000000   0.256598   0.020158
      5      -0.000000   0.138126  -0.000000   0.133853  -0.000000  -0.000000
      6       0.040771   0.000000  -0.132844  -0.000000  -0.017502   0.110246
      7      -0.020649  -0.000000  -0.111270   0.000000   0.046545  -0.207100
      8       0.000001  -0.238860  -0.000000   0.018132   0.000000   0.000000
      9      -0.125789  -0.000000  -0.177609   0.000000   0.097159  -0.040099
     10       0.151688   0.000000  -0.120799  -0.000000  -0.180259  -0.099266
     11       0.000000  -0.052001   0.000000  -0.244367   0.000000  -0.000000
     12      -0.305208  -0.000000  -0.046333   0.000000   0.252860  -0.065661
     13      -0.105924  -0.000000   0.218591  -0.000000  -0.116357  -0.068784
     14      -0.000000   0.019211   0.000000   0.086867  -0.000000   0.000000
     15      -0.031186  -0.000000  -0.008042  -0.000000  -0.221664  -0.233948
     16       0.198353   0.000000  -0.171834  -0.000000  -0.188074  -0.060631
     17      -0.000001   0.175072   0.000000  -0.069952   0.000000   0.000000
     18      -0.017722  -0.000000   0.128850  -0.000000  -0.147111  -0.081499
     19       0.228437   0.000000  -0.053646  -0.000000   0.047296   0.250634
     20       0.000001  -0.151263  -0.000000   0.142678  -0.000000  -0.000000
     21       0.206191   0.000000   0.092476   0.000000   0.088198  -0.043330
     22      -0.140566  -0.000000  -0.062869  -0.000000  -0.031189  -0.149717
     23       0.000000  -0.072833  -0.000000   0.067766  -0.000000  -0.000000
     24       0.108303   0.000000  -0.020061  -0.000000   0.083768  -0.207467
     25       0.078370   0.000000   0.146747   0.000000   0.044638  -0.011048
     26       0.000000  -0.014419   0.000000  -0.022084   0.000000   0.000000
     27       0.077517   0.000000   0.122663   0.000000   0.038992   0.168466
     28      -0.435136  -0.000000  -0.019719  -0.000000  -0.144756   0.233203
     29      -0.000000   0.054273   0.000000  -0.028890   0.000000   0.000000
     30       0.004992   0.000000   0.142131  -0.000000  -0.287192  -0.109224
     31       0.000308   0.000000   0.129186   0.000000   0.283666  -0.325608
     32      -0.000000   0.126549  -0.000000  -0.227486   0.000000  -0.000000
     33       0.000897   0.000000  -0.218190  -0.000000  -0.005810   0.322740
     34       0.152995   0.000000   0.174531   0.000000   0.187437   0.068341
     35      -0.000001   0.480931  -0.000000   0.553258  -0.000000  -0.000000
     36      -0.460542  -0.000000   0.331173   0.000000   0.334239  -0.150014
     37      -0.104587  -0.000000   0.204077  -0.000000  -0.118110  -0.064594
     38       0.000000  -0.018131  -0.000000   0.131254  -0.000000  -0.000000
     39       0.009786   0.000000   0.112471  -0.000000  -0.283166  -0.158040
     40       0.130901   0.000000  -0.386343  -0.000000  -0.081021  -0.189660
     41      -0.000001   0.442489  -0.000000   0.267199  -0.000000  -0.000000
     42      -0.091168  -0.000000   0.231027   0.000000   0.217701   0.011946
     43       0.228879   0.000000  -0.054553  -0.000000   0.053550   0.253051
     44       0.000001  -0.302131  -0.000000   0.626518  -0.000001   0.000000
     45       0.240397   0.000000   0.184932   0.000000   0.138315   0.012331
     46       0.296033   0.000000   0.485257   0.000000   0.134494   0.373761
     47      -0.000002   0.569113  -0.000000   0.011525  -0.000000   0.000000
                 18         19         20         21         22         23    
      0       0.000000  -0.000000   0.000000  -0.067517   0.000000  -0.237156
      1      -0.000000  -0.000000  -0.000000   0.033104  -0.000000   0.129072
      2       0.035404   0.076205  -0.102821   0.000000   0.006151  -0.000000
      3      -0.000000   0.000000  -0.000000  -0.234709   0.000000   0.201195
      4       0.000000  -0.000000  -0.000000  -0.014362  -0.000000   0.164110
      5      -0.051267  -0.127872  -0.068257  -0.000000  -0.004535  -0.000000
      6      -0.000000   0.000000  -0.000000  -0.086662   0.000000   0.139410
      7      -0.000000   0.000000  -0.000000   0.006566   0.000000   0.073404
      8       0.039638   0.051521  -0.037364   0.000000   0.219223   0.000000
      9      -0.000000  -0.000000   0.000000   0.072558  -0.000000   0.058744
     10      -0.000000  -0.000000   0.000000   0.095908  -0.000000   0.055003
     11      -0.037994  -0.118794   0.193624  -0.000001  -0.064384  -0.000000
     12       0.000000  -0.000000   0.000000   0.127267  -0.000000  -0.231880
     13       0.000000   0.000000  -0.000000  -0.095665   0.000000   0.118998
     14      -0.045049   0.042479  -0.036708   0.000000   0.023340   0.000000
     15       0.000000  -0.000000   0.000000   0.159432  -0.000000   0.120188
     16       0.000000  -0.000000   0.000000   0.191086  -0.000000  -0.067068
     17       0.019215   0.056401  -0.057706   0.000000  -0.044687   0.000000
     18       0.000000   0.000000  -0.000000  -0.005552   0.000000   0.026732
     19       0.000000   0.000000   0.000000  -0.001953   0.000000  -0.355057
     20      -0.056029  -0.118079  -0.005835  -0.000000  -0.098273   0.000000
     21       0.000000  -0.000000   0.000000   0.040120  -0.000000   0.018963
     22      -0.000000   0.000000  -0.000000  -0.223165   0.000000  -0.063786
     23       0.028280   0.228434  -0.010748  -0.000000  -0.309110  -0.000000
     24      -0.000000   0.000000  -0.000000  -0.241139   0.000000  -0.115015
     25       0.000000   0.000000  -0.000000  -0.086690   0.000000  -0.069052
     26       0.000501  -0.038463   0.001457   0.000000   0.051605   0.000000
     27       0.000000  -0.000000   0.000000   0.224172  -0.000000   0.080931
     28      -0.000000  -0.000000   0.000000   0.043566  -0.000000  -0.003940
     29      -0.030839  -0.053722   0.002643   0.000000   0.088752   0.000000
     30       0.000000  -0.000000   0.000000   0.030986   0.000000  -0.167089
     31      -0.000000  -0.000000   0.000000   0.218670  -0.000000   0.251070
     32       0.219561   0.490832   0.606380  -0.000001   0.284903   0.000001
     33      -0.000000   0.000000  -0.000000  -0.315370   0.000000   0.394242
[...]
     33       0.031633  -0.169676  -0.218614   0.455458   0.221325  -0.143507
     34       0.090611   0.360052   0.368574  -0.562930  -0.463034   0.248859
     35      -0.000000  -0.000000   0.000000  -0.000000  -0.000000  -0.000000
     36       0.143654   0.086860  -0.682546  -0.065962  -0.274199   0.775632
     37      -0.010778  -0.003439   0.047231  -0.035592   0.058222  -0.063642
     38      -0.000000  -0.000000   0.000000   0.000000   0.000000   0.000000
     39       0.333027  -0.041317   0.220277  -0.038976  -0.179155   0.140728
     40      -0.570767   0.127632  -0.481946  -0.007147   0.266538  -0.249152
     41       0.000000  -0.000000   0.000000  -0.000000   0.000000   0.000000
     42      -0.667844   0.407943   0.135603   0.441559  -0.377071   0.313393
     43      -0.010681   0.023767  -0.034412  -0.101577   0.053119  -0.010300
     44      -0.000000  -0.000000   0.000000   0.000000  -0.000000  -0.000000
     45       0.041133  -0.000915  -0.041862  -0.009095  -0.037928  -0.044344
     46       0.109078   0.016976  -0.084071  -0.005021  -0.105223  -0.112576
     47       0.000000   0.000000  -0.000000  -0.000000  -0.000000  -0.000000
                 36         37         38         39         40         41    
      0      -0.119538  -0.028972   0.131191  -0.194930  -0.127291  -0.034832
      1      -0.286833   0.145245   0.132822  -0.010410  -0.277966  -0.018496
      2      -0.000000   0.000000   0.000000  -0.000000   0.000000   0.000000
      3      -0.147904  -0.072515  -0.120207   0.205815  -0.040032   0.051951
      4       0.311326  -0.085355   0.073537  -0.176353   0.241545  -0.017904
      5       0.000000  -0.000000  -0.000000  -0.000000  -0.000000  -0.000000
      6       0.232993   0.222754  -0.007859  -0.292407  -0.068042  -0.145440
      7      -0.035740   0.027084  -0.160370   0.051812  -0.196458   0.063373
      8       0.000000  -0.000000  -0.000000   0.000000   0.000000  -0.000000
      9      -0.099223  -0.168380   0.138452   0.175746   0.106949   0.099510
     10      -0.207261   0.092501   0.091703   0.039119   0.394443  -0.089700
     11      -0.000000   0.000000   0.000000  -0.000000   0.000000   0.000000
     12       0.055214   0.027027  -0.042834  -0.019081  -0.032281  -0.004066
     13       0.015458  -0.034895  -0.025803  -0.012280  -0.047051   0.020871
     14       0.000000  -0.000000  -0.000000  -0.000000  -0.000000  -0.000000
     15      -0.158869  -0.039087  -0.121994  -0.241755   0.038432  -0.053102
     16       0.243815  -0.100593   0.106550   0.134570  -0.305108   0.070636
     17      -0.000000   0.000000  -0.000000   0.000000   0.000000  -0.000000
     18       0.250768   0.192156   0.000422   0.393132   0.093481   0.062149
     19       0.001837  -0.022711  -0.123000  -0.027988   0.148606  -0.010157
     20       0.000000  -0.000000  -0.000000  -0.000000  -0.000000   0.000000
     21      -0.053670   0.021254   0.019867  -0.096025   0.054301   0.590626
     22      -0.018613  -0.056569   0.018593   0.056415  -0.022199  -0.309664
     23       0.000000  -0.000000   0.000000  -0.000000  -0.000000   0.000000
     24       0.013673   0.002303   0.002514   0.008123   0.004799  -0.043557
     25      -0.000245   0.000310   0.004147   0.002796   0.009420   0.031759
     26      -0.000000   0.000000  -0.000000  -0.000000   0.000000  -0.000000
     27       0.004418  -0.041326  -0.019604   0.075992  -0.039745  -0.342606
     28       0.002020   0.040128   0.013021  -0.052659   0.027231   0.189001
     29      -0.000000   0.000000   0.000000  -0.000000   0.000000  -0.000000
     30       0.129099  -0.321789  -0.198904  -0.134670   0.166457  -0.007291
     31       0.145528  -0.339771  -0.484703   0.155896   0.243752   0.039836
     32       0.000000  -0.000000  -0.000000   0.000000   0.000000   0.000000
     33       0.205843  -0.192697   0.146064  -0.067406   0.176890   0.018935
     34      -0.359542   0.099414  -0.456926   0.365135  -0.154834   0.079621
     35      -0.000000   0.000000  -0.000000   0.000000   0.000000  -0.000000
     36      -0.503845   0.113669   0.356299   0.250867   0.454953  -0.453995
     37       0.008235  -0.012158  -0.046715  -0.061438  -0.038108   0.117198
     38      -0.000000   0.000000  -0.000000   0.000000  -0.000000   0.000000
     39       0.110183  -0.268712   0.166018  -0.041814  -0.271382   0.049898
     40      -0.207474   0.243546  -0.403362  -0.249747   0.163706  -0.088401
     41      -0.000000   0.000000   0.000000   0.000000  -0.000000   0.000000
     42      -0.006439  -0.637621  -0.006927  -0.448309  -0.144913  -0.029114
     43      -0.004305  -0.037182  -0.149545  -0.042721   0.171080  -0.011982
     44       0.000000   0.000000   0.000000  -0.000000  -0.000000  -0.000000
     45       0.038942  -0.018247   0.013465   0.009966  -0.003673  -0.186910
     46       0.042396  -0.037100   0.012055   0.018897  -0.016309  -0.254809
     47       0.000000   0.000000   0.000000  -0.000000   0.000000   0.000000
                 42         43         44         45         46         47    
      0       0.066379  -0.030757   0.020074   0.012281  -0.000779  -0.000210
      1      -0.037950   0.015270  -0.007727  -0.009243  -0.000535   0.000120
      2      -0.000000  -0.000000  -0.000000   0.000000  -0.000000   0.000000
      3      -0.009744   0.004638  -0.006975   0.076590  -0.000307   0.001091
      4      -0.002148   0.000704  -0.002253   0.040441   0.000300   0.000147
      5       0.000000   0.000000   0.000000  -0.000000   0.000000   0.000000
      6      -0.000153   0.000285   0.000508  -0.003159  -0.000513   0.000117
      7      -0.000222  -0.000125  -0.000154   0.001928  -0.001528   0.000611
      8       0.000000   0.000000   0.000000  -0.000000   0.000000   0.000000
      9       0.000044  -0.000427  -0.000534  -0.000719   0.003980  -0.000396
     10       0.000657   0.003017   0.003369  -0.000277  -0.003998   0.000020
     11      -0.000000  -0.000000  -0.000000   0.000000   0.000000   0.000000
     12      -0.000126  -0.000045   0.000108   0.000165  -0.004502   0.000164
     13      -0.000260  -0.000379  -0.000155   0.000144  -0.061587   0.000435
     14      -0.000000   0.000000   0.000000  -0.000000  -0.000000  -0.000000
     15      -0.010979  -0.055330  -0.050403  -0.002786  -0.001475   0.000013
     16      -0.007645  -0.035348  -0.026989  -0.001368   0.002488  -0.000010
     17       0.000000  -0.000000   0.000000  -0.000000   0.000000  -0.000000
     18      -0.002616   0.003154   0.002273  -0.000836   0.001212   0.000026
     19       0.035165   0.045877  -0.066437  -0.004063  -0.000481  -0.000018
     20      -0.000000   0.000000   0.000000  -0.000000  -0.000000  -0.000000
     21      -0.000225  -0.000037  -0.000190   0.001166  -0.006237  -0.001458
     22       0.000097   0.000197   0.000168   0.000891   0.005267   0.001009
     23      -0.000000   0.000000  -0.000000  -0.000000  -0.000000   0.000000
     24       0.000055   0.000018   0.000028  -0.000529   0.000996  -0.054924
     25      -0.000068  -0.000032  -0.000097   0.000133   0.000004   0.030960
     26      -0.000000  -0.000000  -0.000000   0.000000  -0.000000  -0.000000
     27       0.000098   0.000086   0.000102  -0.000053   0.004344   0.001510
     28      -0.000036  -0.000010  -0.000038  -0.000283  -0.002392  -0.000296
     29      -0.000000  -0.000000  -0.000000   0.000000  -0.000000   0.000000
     30      -0.767151   0.331159  -0.197228  -0.131301   0.000855   0.000238
     31       0.429055  -0.183853   0.107116   0.075198  -0.000860   0.000144
     32      -0.000000  -0.000000  -0.000000   0.000000  -0.000000   0.000000
     33       0.112230  -0.050534   0.078283  -0.867412  -0.003264  -0.002328
     34       0.056798  -0.025132   0.039912  -0.462682  -0.000283   0.000457
     35       0.000000  -0.000000   0.000000   0.000000  -0.000000  -0.000000
     36       0.000194   0.001488   0.001417  -0.000532   0.029915  -0.001599
     37       0.004205   0.003267  -0.002576  -0.002481   0.997504  -0.008172
     38       0.000000   0.000000  -0.000000   0.000000   0.000000   0.000000
     39       0.136894   0.649260   0.543431   0.028474  -0.000787   0.000272
     40       0.081099   0.385227   0.318337   0.016555  -0.002096   0.000388
     41       0.000000   0.000000  -0.000000   0.000000  -0.000000  -0.000000
     42       0.007085   0.003665  -0.010439   0.000707  -0.000498  -0.000242
     43      -0.422863  -0.525113   0.732745   0.041041   0.005142  -0.000093
     44       0.000000   0.000000  -0.000000   0.000000  -0.000000  -0.000000
     45       0.001446  -0.000912   0.000746  -0.006801   0.009562   0.858582
     46       0.001021  -0.000313   0.000909  -0.004848  -0.002032  -0.508703
     47      -0.000000  -0.000000  -0.000000  -0.000000  -0.000000  -0.000000


-----------
IR SPECTRUM
-----------

 Mode   freq       eps      Int      T**2         TX        TY        TZ
       cm**-1   L/(mol*cm) km/mol    a.u.
----------------------------------------------------------------------------
  6:     94.41   0.002458   12.42  0.008126  (-0.000000 -0.000000 -0.090145)
  7:    112.14   0.003021   15.27  0.008408  ( 0.000000  0.000000 -0.091693)
  8:    238.26   0.008666   43.79  0.011350  (-0.000000 -0.000000  0.106535)
  9:    254.40   0.006003   30.34  0.007364  (-0.054240 -0.066499 -0.000000)
 10:    304.59   0.015836   80.03  0.016225  ( 0.000000 -0.000000 -0.127377)
 11:    369.68   0.001215    6.14  0.001026  ( 0.030454 -0.009908  0.000000)
 12:    436.75   0.001463    7.39  0.001045  ( 0.003154  0.032174 -0.000000)
 13:    444.47   0.005186   26.21  0.003641  ( 0.000000  0.000000  0.060339)
 14:    523.62   0.007239   36.58  0.004314  ( 0.062369  0.020601 -0.000000)
 15:    538.43   0.003271   16.53  0.001896  (-0.000000 -0.000000  0.043539)
 16:    566.57   0.000752    3.80  0.000414  (-0.013589  0.015150 -0.000000)
 17:    661.71   0.003425   17.31  0.001615  ( 0.003159 -0.040065 -0.000000)
 18:    697.62   0.032575  164.62  0.014572  ( 0.000000  0.000000  0.120713)
 19:    707.17   0.000271    1.37  0.000120  (-0.000000  0.000000 -0.010939)
 20:    746.11   0.011433   57.78  0.004782  ( 0.000000 -0.000000  0.069152)
 21:    767.06   0.001065    5.38  0.000433  ( 0.009921  0.018304 -0.000000)
 22:    797.59   0.000690    3.49  0.000270  (-0.000000 -0.000000 -0.016434)
 23:    845.24   0.009529   48.15  0.003518  ( 0.055863 -0.019932 -0.000000)
 24:    864.95   0.001505    7.61  0.000543  ( 0.000000  0.000000  0.023301)
 25:    952.16   0.000191    0.97  0.000063  ( 0.000000  0.000000  0.007919)
 26:   1010.67   0.000109    0.55  0.000034  ( 0.000000  0.000000 -0.005793)
 27:   1039.93   0.011771   59.48  0.003532  ( 0.039249  0.044628 -0.000000)
 28:   1060.80   0.002779   14.04  0.000817  (-0.021404  0.018957  0.000000)
 29:   1102.05   0.029457  148.86  0.008341  ( 0.075605  0.051237  0.000000)
 30:   1133.29   0.006526   32.98  0.001797  ( 0.027322  0.032409 -0.000000)
 31:   1159.01   0.011756   59.41  0.003165  ( 0.043801  0.035308 -0.000000)
 32:   1215.34   0.089472  452.15  0.022974  (-0.147057 -0.036713  0.000000)
 33:   1235.87   0.033588  169.74  0.008481  (-0.090905 -0.014742  0.000000)
 34:   1301.92   0.090730  458.51  0.021748  (-0.056325 -0.136290  0.000000)
 35:   1357.42   0.061658  311.59  0.014175  ( 0.022698 -0.116875 -0.000000)
 36:   1402.59   0.003516   17.77  0.000782  (-0.000446  0.027966 -0.000000)
 37:   1479.76   0.011982   60.55  0.002527  (-0.050180 -0.002973  0.000000)
 38:   1516.60   0.022413  113.26  0.004612  ( 0.067904  0.000865  0.000000)
 39:   1645.74   0.003859   19.50  0.000732  ( 0.026838 -0.003370 -0.000000)
 40:   1672.29   0.021112  106.69  0.003940  ( 0.022922  0.058431  0.000000)
 41:   1749.02   0.125414  633.79  0.022377  ( 0.114811 -0.095891  0.000000)
 42:   3228.39   0.000463    2.34  0.000045  ( 0.006682 -0.000378 -0.000000)
 43:   3241.25   0.001596    8.07  0.000154  (-0.008891  0.008640 -0.000000)
 44:   3252.99   0.001165    5.89  0.000112  (-0.002599 -0.010248 -0.000000)
 45:   3276.54   0.001156    5.84  0.000110  ( 0.008199  0.006548  0.000000)
 46:   3463.93   0.113040  571.26  0.010184  ( 0.001950  0.100896  0.000000)
 47:   3773.51   0.040012  202.20  0.003309  ( 0.056355 -0.011532 -0.000000)

* The epsilon (eps) is given for a Dirac delta lineshape.
** The dipole moment derivative (T) already includes vibrational overlap.

The first frequency considered to be a vibration is 6
The total number of vibrations considered is 42


--------------------------
THERMOCHEMISTRY AT 298.15K
--------------------------

Temperature         ... 298.15 K
Pressure            ... 1.00 atm
Total Mass          ... 138.12 AMU

Throughout the following assumptions are being made:
  (1) The electronic state is orbitally nondegenerate
  (2) There are no thermally accessible electronically excited states
  (3) Hindered rotations indicated by low frequency modes are not
      treated as such but are treated as vibrations and this may
      cause some error
  (4) All equations used are the standard statistical mechanics
      equations for an ideal gas
  (5) All vibrations are strictly harmonic

freq.      94.41  E(vib)   ...       0.47 
freq.     112.14  E(vib)   ...       0.45 
freq.     238.26  E(vib)   ...       0.32 
freq.     254.40  E(vib)   ...       0.30 
freq.     304.59  E(vib)   ...       0.26 
freq.     369.68  E(vib)   ...       0.21 
freq.     436.75  E(vib)   ...       0.17 
freq.     444.47  E(vib)   ...       0.17 
freq.     523.62  E(vib)   ...       0.13 
freq.     538.43  E(vib)   ...       0.12 
freq.     566.57  E(vib)   ...       0.11 
freq.     661.71  E(vib)   ...       0.08 
freq.     697.62  E(vib)   ...       0.07 
freq.     707.17  E(vib)   ...       0.07 
freq.     746.11  E(vib)   ...       0.06 
freq.     767.06  E(vib)   ...       0.06 
freq.     797.59  E(vib)   ...       0.05 
freq.     845.24  E(vib)   ...       0.04 
freq.     864.95  E(vib)   ...       0.04 
freq.     952.16  E(vib)   ...       0.03 
freq.    1010.67  E(vib)   ...       0.02 
freq.    1039.93  E(vib)   ...       0.02 
freq.    1060.80  E(vib)   ...       0.02 
freq.    1102.05  E(vib)   ...       0.02 
freq.    1133.29  E(vib)   ...       0.01 
freq.    1159.01  E(vib)   ...       0.01 
freq.    1215.34  E(vib)   ...       0.01 
freq.    1235.87  E(vib)   ...       0.01 
freq.    1301.92  E(vib)   ...       0.01 
freq.    1357.42  E(vib)   ...       0.01 
freq.    1402.59  E(vib)   ...       0.00 
freq.    1479.76  E(vib)   ...       0.00 
freq.    1516.60  E(vib)   ...       0.00 
freq.    1645.74  E(vib)   ...       0.00 
freq.    1672.29  E(vib)   ...       0.00 
freq.    1749.02  E(vib)   ...       0.00 
freq.    3228.39  E(vib)   ...       0.00 
freq.    3241.25  E(vib)   ...       0.00 
freq.    3252.99  E(vib)   ...       0.00 
freq.    3276.54  E(vib)   ...       0.00 
freq.    3463.93  E(vib)   ...       0.00 
freq.    3773.51  E(vib)   ...       0.00 

------------
INNER ENERGY
------------

The inner energy is: U= E(el) + E(ZPE) + E(vib) + E(rot) + E(trans)
    E(el)   - is the total energy from the electronic structure calculation
              = E(kin-el) + E(nuc-el) + E(el-el) + E(nuc-nuc)
    E(ZPE)  - the the zero temperature vibrational energy from the frequency calculation
    E(vib)  - the the finite temperature correction to E(ZPE) due to population
              of excited vibrational states
    E(rot)  - is the rotational thermal energy
    E(trans)- is the translational thermal energy

Summary of contributions to the inner energy U:
Electronic energy                ...   -495.43320340 Eh
Zero point energy                ...      0.11901563 Eh      74.68 kcal/mol
Thermal vibrational correction   ...      0.00534719 Eh       3.36 kcal/mol
Thermal rotational correction    ...      0.00141627 Eh       0.89 kcal/mol
Thermal translational correction ...      0.00141627 Eh       0.89 kcal/mol
-----------------------------------------------------------------------
Total thermal energy                   -495.30600803 Eh


Summary of corrections to the electronic energy:
(perhaps to be used in another calculation)
Total thermal correction                  0.00817973 Eh       5.13 kcal/mol
Non-thermal (ZPE) correction              0.11901563 Eh      74.68 kcal/mol
-----------------------------------------------------------------------
Total correction                          0.12719536 Eh      79.82 kcal/mol


--------
ENTHALPY
--------

The enthalpy is H = U + kB*T
                kB is Boltzmann's constant
Total free energy                 ...   -495.30600803 Eh 
Thermal Enthalpy correction       ...      0.00094421 Eh       0.59 kcal/mol
-----------------------------------------------------------------------
Total Enthalpy                    ...   -495.30506382 Eh


Note: Rotational entropy computed according to Herzberg 
Infrared and Raman Spectra, Chapter V,1, Van Nostrand Reinhold, 1945 
Point Group:  Cs, Symmetry Number:   1  
Rotational constants in cm-1:     0.077337     0.040588     0.026618 

Vibrational entropy computed according to the QRRHO of S. Grimme
Chem.Eur.J. 2012 18 9955


-------
ENTROPY
-------

The entropy contributions are T*S = T*(S(el)+S(vib)+S(rot)+S(trans))
     S(el)   - electronic entropy
     S(vib)  - vibrational entropy
     S(rot)  - rotational entropy
     S(trans)- translational entropy
The entropies will be listed as multiplied by the temperature to get
units of energy

Electronic entropy                ...      0.00000000 Eh      0.00 kcal/mol
Vibrational entropy               ...      0.00868801 Eh      5.45 kcal/mol
Rotational entropy                ...      0.01394374 Eh      8.75 kcal/mol
Translational entropy             ...      0.01932865 Eh     12.13 kcal/mol
-----------------------------------------------------------------------
Final entropy term                ...      0.04196040 Eh     26.33 kcal/mol

In case the symmetry of your molecule has not been determined correctly
or in case you have a reason to use a different symmetry number we print 
out the resulting rotational entropy values for sn=1,12 :
 --------------------------------------------------------
|  sn= 1 | S(rot)=       0.01394374 Eh      8.75 kcal/mol|
|  sn= 2 | S(rot)=       0.01328929 Eh      8.34 kcal/mol|
|  sn= 3 | S(rot)=       0.01290645 Eh      8.10 kcal/mol|
|  sn= 4 | S(rot)=       0.01263483 Eh      7.93 kcal/mol|
|  sn= 5 | S(rot)=       0.01242414 Eh      7.80 kcal/mol|
|  sn= 6 | S(rot)=       0.01225200 Eh      7.69 kcal/mol|
|  sn= 7 | S(rot)=       0.01210645 Eh      7.60 kcal/mol|
|  sn= 8 | S(rot)=       0.01198037 Eh      7.52 kcal/mol|
|  sn= 9 | S(rot)=       0.01186916 Eh      7.45 kcal/mol|
|  sn=10 | S(rot)=       0.01176969 Eh      7.39 kcal/mol|
|  sn=11 | S(rot)=       0.01167970 Eh      7.33 kcal/mol|
|  sn=12 | S(rot)=       0.01159754 Eh      7.28 kcal/mol|
 --------------------------------------------------------


-------------------
GIBBS FREE ENERGY
-------------------

The Gibbs free energy is G = H - T*S

Total enthalpy                    ...   -495.30506382 Eh 
Total entropy correction          ...     -0.04196040 Eh    -26.33 kcal/mol
-----------------------------------------------------------------------
Final Gibbs free energy         ...   -495.34702422 Eh

For completeness - the Gibbs free energy minus the electronic energy
G-E(el)                           ...      0.08617917 Eh     54.08 kcal/mol


Timings for individual modules:

Sum of individual times         ...      255.628 sec (=   4.260 min)
GTO integral calculation        ...        0.159 sec (=   0.003 min)   0.1 %
SCF iterations                  ...       39.016 sec (=   0.650 min)  15.3 %
Analytical frequency calculation...      216.453 sec (=   3.608 min)  84.7 %
                             ****ORCA TERMINATED NORMALLY****
TOTAL RUN TIME: 0 days 0 hours 4 minutes 16 seconds 87 msec
